# Force             
# CofR              : (0.000000000000e+00 0.000000000000e+00 0.000000000000e+00)
#
# Time              	total_x total_y total_z	pressure_x pressure_y pressure_z	viscous_x viscous_y viscous_z
1                    -5.722542237601e+01 1.288018246186e+00 2.379403969117e+00 -5.705504194994e+01 1.298603128140e+00 2.379495129554e+00 -1.703804260690e-01 -1.058488195417e-02 -9.116043669647e-05
2                    -2.435013890389e+02 1.059816164513e+00 4.420702255602e+00 -2.432825288519e+02 1.075389162251e+00 4.420193933135e+00 -2.188601869979e-01 -1.557299773819e-02 5.083224670212e-04
3                    -5.892137925553e+01 2.037760943936e+00 -1.840161233213e+00 -5.896359074482e+01 2.053198458390e+00 -1.840154325404e+00 4.221148928840e-02 -1.543751445437e-02 -6.907809584138e-06
4                    1.129931132611e+02 -1.354208495079e-01 -2.873385734210e+00 1.127665068893e+02 -1.199599427120e-01 -2.874159028300e+00 2.266063717980e-01 -1.546090679582e-02 7.732940899106e-04
5                    2.609040830726e+02 -7.616455571074e+00 6.995813477808e-01 2.607284087039e+02 -7.607702679580e+00 6.982508622693e-01 1.756743686463e-01 -8.752891493721e-03 1.330485511521e-03
6                    1.196251197680e+02 -4.600870873599e+00 5.847904765656e+00 1.195772562345e+02 -4.600389002268e+00 5.846411598159e+00 4.786353355150e-02 -4.818713311620e-04 1.493167496667e-03
7                    -5.783406200309e+01 2.454792792779e+00 8.709180204069e+00 -5.776033137844e+01 2.446796356716e+00 8.708468415785e+00 -7.373062465293e-02 7.996436063011e-03 7.117882841589e-04
8                    -2.400839022071e+02 5.930290791389e+00 1.305832885964e+01 -2.399857342110e+02 5.928266802207e+00 1.305606019855e+01 -9.816799615252e-02 2.023989181481e-03 2.268661096103e-03
9                    -1.834704096063e+02 2.501824828274e+00 9.501164475343e+00 -1.834330930044e+02 2.502535886811e+00 9.495543647915e+00 -3.731660192177e-02 -7.110585372095e-04 5.620827427827e-03
10                   5.206487083969e+01 -6.418665257701e-01 -9.248889900251e+00 5.202157642578e+01 -6.397162649062e-01 -9.249137017115e+00 4.329441390082e-02 -2.150260863885e-03 2.471168637002e-04
11                   2.745378783592e+02 -1.250481291928e+00 -1.807400453895e+01 2.744839494656e+02 -1.248710181952e+00 -1.806806992312e+01 5.392889359998e-02 -1.771109975565e-03 -5.934615831343e-03
12                   2.195098548993e+02 -8.763802113932e-01 -8.158525757082e+00 2.194757351136e+02 -8.757043267766e-01 -8.150025564277e+00 3.411978568093e-02 -6.758846165721e-04 -8.500192805412e-03
13                   2.254860701127e+01 5.702526737135e-01 8.404998081237e+00 2.255313606978e+01 5.706192144191e-01 8.408302063587e+00 -4.529058507406e-03 -3.665407055601e-04 -3.303982349300e-03
14                   -7.647189709520e+01 1.959355567335e+00 1.185868932810e+01 -7.643665499300e+01 1.957801404283e+00 1.185428180951e+01 -3.524210219756e-02 1.554163051482e-03 4.407518586083e-03
15                   -1.137727107629e+02 2.205284441332e+00 1.725421324171e+00 -1.137369382165e+02 2.204019007029e+00 1.721409837702e+00 -3.577254638345e-02 1.265434302570e-03 4.011486469707e-03
16                   -3.874769619760e+01 4.267046853588e-01 -9.662187716799e+00 -3.873957242414e+01 4.267901705925e-01 -9.663536044107e+00 -8.123773457387e-03 -8.548523365224e-05 1.348327308096e-03
17                   5.705356080791e+01 -1.331807372803e+00 -1.194480287398e+01 5.702365207897e+01 -1.331879948557e+00 -1.193912489911e+01 2.990872893427e-02 7.257575391077e-05 -5.677974871446e-03
18                   9.881610114632e+01 -6.451621145730e-01 -3.957272192867e+00 9.878504826649e+01 -6.450279304559e-01 -3.948207999717e+00 3.105287982302e-02 -1.341841170805e-04 -9.064193150066e-03
19                   5.723918781239e+01 4.931313318614e-01 6.127425016759e+00 5.722708854471e+01 4.910332995882e-01 6.133252994820e+00 1.209926768078e-02 2.098032273144e-03 -5.827978061472e-03
20                   -9.151807484471e+00 9.326811984358e-01 8.363559863158e+00 -9.146431759129e+00 9.301109089179e-01 8.363080067843e+00 -5.375725342267e-03 2.570289517825e-03 4.797953152313e-04
21                   -2.745654030294e+01 5.029695827471e-01 1.739464393960e+00 -2.744686386509e+01 5.023024956742e-01 1.737766109550e+00 -9.676437850452e-03 6.670870729631e-04 1.698284410147e-03
22                   -2.063051498022e+01 -2.559098776830e-02 -4.956525868782e+00 -2.062674269684e+01 -2.471591625389e-02 -4.954152774839e+00 -3.772283383899e-03 -8.750715144152e-04 -2.373093942955e-03
23                   3.002662919566e+00 -4.070047226930e-01 -5.129656916333e+00 2.997328162182e+00 -4.041486543981e-01 -5.124605928702e+00 5.334757384078e-03 -2.856068294875e-03 -5.050987631475e-03
24                   2.198112576583e+01 -1.063761016565e-01 -1.176627768012e-01 2.196512759988e+01 -1.045629529363e-01 -1.131870677828e-01 1.599816595045e-02 -1.813148720198e-03 -4.475709018444e-03
25                   1.950742088771e+01 4.998212184087e-01 4.395441952981e+00 1.949248740884e+01 5.010439036998e-01 4.397956507330e+00 1.493347886901e-02 -1.222685291060e-03 -2.514554349695e-03
26                   4.161137290637e+00 7.236873918591e-01 5.631674558968e+00 4.155133697125e+00 7.242722924882e-01 5.632939562223e+00 6.003593511688e-03 -5.849006290843e-04 -1.265003255159e-03
27                   -7.159905026877e+00 5.486094535871e-01 3.702750315301e+00 -7.158614496779e+00 5.485437709340e-01 3.704269754103e+00 -1.290530097366e-03 6.568265309181e-05 -1.519438802347e-03
28                   -4.467466268144e+00 3.925907766651e-01 1.441126222513e+00 -4.467798748034e+00 3.919084701700e-01 1.443566137612e+00 3.324798902415e-04 6.823064951015e-04 -2.439915099447e-03
29                   5.485670960042e+00 3.435707834341e-01 1.388014391120e+00 5.475783429940e+00 3.420954780054e-01 1.389627408395e+00 9.887530101931e-03 1.475305428734e-03 -1.613017275662e-03
30                   1.108927516172e+01 3.093714334995e-01 3.198305781759e+00 1.107384638271e+01 3.074744142032e-01 3.197954369652e+00 1.542877901434e-02 1.897019296298e-03 3.514121073352e-04
31                   8.037413326319e+00 1.927778244327e-01 4.708983836494e+00 8.025474284121e+00 1.902974305823e-01 4.708295203461e+00 1.193904219804e-02 2.480393850406e-03 6.886330331390e-04
32                   7.210260692051e-01 -1.910587652165e-01 4.656369104049e+00 7.153341171262e-01 -1.941435267830e-01 4.657689955491e+00 5.691952078908e-03 3.084761566478e-03 -1.320851441663e-03
33                   -3.388508928368e+00 -6.832479210168e-01 3.094517045847e+00 -3.392809138797e+00 -6.872376150495e-01 3.097890155252e+00 4.300210428968e-03 3.989694032672e-03 -3.373109404327e-03
34                   -2.472834814149e+00 -9.366658869268e-01 1.150466047637e+00 -2.481850386591e+00 -9.415275494977e-01 1.153639506626e+00 9.015572442270e-03 4.861662570909e-03 -3.173458989392e-03
35                   3.695016095619e-01 -6.503464682876e-01 -6.245432021280e-02 3.546971207659e-01 -6.556293218191e-01 -6.098207984868e-02 1.480448879595e-02 5.282853531529e-03 -1.472240364123e-03
36                   1.588710779519e+00 -4.870258356394e-02 -4.858835649497e-01 1.572378191174e+00 -5.425134617675e-02 -4.860861928632e-01 1.633258834427e-02 5.548762612810e-03 2.026279135299e-04
37                   7.127846434194e-01 4.423452896326e-01 -5.883065872254e-01 6.974375147949e-01 4.368851574909e-01 -5.889734329216e-01 1.534712862453e-02 5.460132141718e-03 6.668456962643e-04
38                   -7.342978372956e-01 6.205804795579e-01 -7.444050488820e-01 -7.496392832915e-01 6.154066434180e-01 -7.445915553610e-01 1.534144599590e-02 5.173836139905e-03 1.865064789791e-04
39                   -1.216705255743e+00 5.893954955130e-01 -1.099789172105e+00 -1.233424149545e+00 5.845926131672e-01 -1.099437854139e+00 1.671889380223e-02 4.802882345806e-03 -3.513179653066e-04
40                   -6.417744923366e-01 5.069567754532e-01 -1.526732804453e+00 -6.613223881925e-01 5.022448912968e-01 -1.526699485610e+00 1.954789585585e-02 4.711884156433e-03 -3.331884273032e-05
41                   8.777290296159e-02 4.690016452681e-01 -1.862605599324e+00 6.524931010032e-02 4.642875297905e-01 -1.863593940780e+00 2.252359286127e-02 4.714115477600e-03 9.883414557697e-04
42                   2.952672378215e-01 5.116718431492e-01 -2.043478098388e+00 2.706728938314e-01 5.069936330450e-01 -2.045121114890e+00 2.459434399015e-02 4.678210104161e-03 1.643016501634e-03
43                   6.560128929881e-02 5.797657482728e-01 -1.989254775275e+00 3.962471112464e-02 5.752559798335e-01 -1.990514723977e+00 2.597657817417e-02 4.509768439293e-03 1.259948702250e-03
44                   -1.186270423950e-01 6.043192939194e-01 -1.659917691833e+00 -1.461992910797e-01 6.002504142319e-01 -1.660210285523e+00 2.757224868469e-02 4.068879687514e-03 2.925936892787e-04
45                   4.279819150476e-02 5.858276143189e-01 -1.236231524107e+00 1.292387630785e-02 5.822253662391e-01 -1.235928447381e+00 2.987431519691e-02 3.602248079802e-03 -3.030767253292e-04
46                   3.892662772870e-01 5.405353739405e-01 -9.680636335468e-01 3.567257718609e-01 5.371885424651e-01 -9.676787344217e-01 3.254050542616e-02 3.346831475459e-03 -3.848991250136e-04
47                   6.272748139492e-01 5.140799988939e-01 -9.048882142966e-01 5.925086566310e-01 5.108431161764e-01 -9.045745171672e-01 3.476615731820e-02 3.236882717529e-03 -3.136971293748e-04
48                   6.390089769955e-01 5.184430719284e-01 -9.099483056607e-01 6.025601760419e-01 5.152669368395e-01 -9.095442472331e-01 3.644880095354e-02 3.176135088897e-03 -4.040584275873e-04
49                   5.296908316439e-01 5.122559603549e-01 -8.480180384802e-01 4.920613016598e-01 5.092028155797e-01 -8.473743615777e-01 3.762952998407e-02 3.053144775131e-03 -6.436769025177e-04
50                   4.577702155966e-01 4.648554349723e-01 -7.205790878882e-01 4.191947516137e-01 4.620324808131e-01 -7.196666914049e-01 3.857546398292e-02 2.822954159154e-03 -9.123964832676e-04
51                   4.908464035485e-01 3.983820752474e-01 -6.220047475136e-01 4.514595923454e-01 3.957125508708e-01 -6.209225900267e-01 3.938681120307e-02 2.669524376563e-03 -1.082157486905e-03
52                   5.741146677758e-01 3.450374856319e-01 -6.102606566542e-01 5.341037812936e-01 3.423778824643e-01 -6.091234812298e-01 4.001088648221e-02 2.659603167524e-03 -1.137175424391e-03
53                   6.063950954664e-01 3.180764921269e-01 -6.495191014155e-01 5.661267319128e-01 3.153371393930e-01 -6.483635473129e-01 4.026836355364e-02 2.739352733851e-03 -1.155554102627e-03
54                   5.720311176325e-01 2.983314279792e-01 -6.875074095231e-01 5.319333252407e-01 2.954918772869e-01 -6.862839268046e-01 4.009779239184e-02 2.839550692268e-03 -1.223482718449e-03
55                   5.274250592526e-01 2.667438164689e-01 -7.174618192424e-01 4.877053271878e-01 2.638765825694e-01 -7.161240679357e-01 3.971973206483e-02 2.867233899527e-03 -1.337751306753e-03
56                   5.251432030103e-01 2.224695672634e-01 -7.509037872458e-01 4.857813387870e-01 2.196715181012e-01 -7.494660909841e-01 3.936186422325e-02 2.798049162185e-03 -1.437696261722e-03
57                   5.648403821046e-01 1.787312316627e-01 -7.790809247405e-01 5.258123069876e-01 1.760463811090e-01 -7.775540672789e-01 3.902807511698e-02 2.684850553635e-03 -1.526857461629e-03
58                   6.062649600156e-01 1.484739880004e-01 -7.801738025529e-01 5.676434275780e-01 1.458916428657e-01 -7.785466775919e-01 3.862153243759e-02 2.582345134665e-03 -1.627124960940e-03
59                   6.193164779505e-01 1.324541682133e-01 -7.518020120781e-01 5.812598528449e-01 1.299541053867e-01 -7.500453833107e-01 3.805662510562e-02 2.500062826563e-03 -1.756628767378e-03
60                   6.090124131052e-01 1.238186139324e-01 -7.133820656596e-01 5.716841699726e-01 1.214066670689e-01 -7.114914937738e-01 3.732824313260e-02 2.411946863455e-03 -1.890571885834e-03
61                   5.961223141793e-01 1.120668053231e-01 -6.826877987126e-01 5.596212769945e-01 1.097643583390e-01 -6.806931470390e-01 3.650103718474e-02 2.302446984171e-03 -1.994651673645e-03
62                   5.928526115576e-01 9.028264512891e-02 -6.608334762239e-01 5.572096124677e-01 8.810236131686e-02 -6.587794387128e-01 3.564299908995e-02 2.180283812045e-03 -2.054037511025e-03
63                   5.943465060648e-01 6.124380726663e-02 -6.356705683165e-01 5.595767962834e-01 5.918551551573e-02 -6.335921885785e-01 3.476970978141e-02 2.058291750899e-03 -2.078379738000e-03
64                   5.882911197963e-01 3.453392943514e-02 -5.973700342182e-01 5.544188404872e-01 3.259144060903e-02 -5.952812118000e-01 3.387227930916e-02 1.942488826111e-03 -2.088822418195e-03
65                   5.672269375878e-01 1.728148185185e-02 -5.441344747712e-01 5.342952736569e-01 1.544795643986e-02 -5.420437591967e-01 3.293166393097e-02 1.833525411983e-03 -2.090715574482e-03
66                   5.324667973374e-01 8.477369454330e-03 -4.794053151932e-01 5.005023838616e-01 6.745476090241e-03 -4.773355619876e-01 3.196441347578e-02 1.731893364089e-03 -2.069753205609e-03
67                   4.914372622908e-01 1.693518055388e-03 -4.092067890536e-01 4.604316530302e-01 5.466352225112e-05 -4.071931810023e-01 3.100560926063e-02 1.638854533137e-03 -2.013608051362e-03
68                   4.533621617240e-01 -7.440285593887e-03 -3.443212421481e-01 4.232806167618e-01 -8.999324581579e-03 -3.424015799886e-01 3.008154496225e-02 1.559038987692e-03 -1.919662159470e-03
69                   4.248565568213e-01 -1.769636098883e-02 -2.976232599787e-01 3.956542326112e-01 -1.918718747997e-02 -2.958172856616e-01 2.920232421007e-02 1.490826491139e-03 -1.805974317158e-03
70                   4.077808824606e-01 -2.517276318678e-02 -2.762650754376e-01 3.794149331537e-01 -2.659985353828e-02 -2.745676335215e-01 2.836594930687e-02 1.427090351500e-03 -1.697441916140e-03
71                   3.989357034706e-01 -2.797115176697e-02 -2.760845646807e-01 3.713720079903e-01 -2.933135728527e-02 -2.744804371708e-01 2.756369548024e-02 1.360205518303e-03 -1.604127509913e-03
72                   3.922794695457e-01 -2.791125965250e-02 -2.852342799004e-01 3.654837340627e-01 -2.919914574185e-02 -2.837140638224e-01 2.679573548302e-02 1.287886089346e-03 -1.520216077949e-03
73                   3.824459732354e-01 -2.854106740017e-02 -2.918013341876e-01 3.563735816454e-01 -2.975562630870e-02 -2.903628146976e-01 2.607239158994e-02 1.214558908528e-03 -1.438519489952e-03
74                   3.676471958854e-01 -3.183571030628e-02 -2.916173110725e-01 3.422423857154e-01 -3.298282846651e-02 -2.902555527169e-01 2.540481016995e-02 1.147118160229e-03 -1.361758355572e-03
75                   3.504708115675e-01 -3.662592643799e-02 -2.898047547984e-01 3.256769590240e-01 -3.771417724840e-02 -2.885033918661e-01 2.479385254350e-02 1.088250810410e-03 -1.301362932271e-03
76                   3.355238595461e-01 -3.980466056820e-02 -2.953123425673e-01 3.112895669290e-01 -4.083976196330e-02 -2.940417978236e-01 2.423429261711e-02 1.035101395096e-03 -1.270544743668e-03
77                   3.258677449822e-01 -3.917761324885e-02 -3.131172273305e-01 3.021500359647e-01 -4.015993519751e-02 -3.118432532130e-01 2.371770901754e-02 9.823219486553e-04 -1.273974117452e-03
78                   3.210637782999e-01 -3.558252038160e-02 -3.402539656814e-01 2.978260437582e-01 -3.650945088948e-02 -3.389495709457e-01 2.323773454175e-02 9.269305078717e-04 -1.304394735710e-03
79                   3.180919236378e-01 -3.253701525654e-02 -3.676026470355e-01 2.953001434652e-01 -3.340704970795e-02 -3.662531026522e-01 2.279178017259e-02 8.700344514027e-04 -1.349544383352e-03
80                   3.135720206766e-01 -3.341886266013e-02 -3.860787044896e-01 2.911916107257e-01 -3.423441545483e-02 -3.846772668285e-01 2.238040995091e-02 8.155527947004e-04 -1.401437661048e-03
81                   3.055200990608e-01 -3.849861874121e-02 -3.923577001626e-01 2.835169855271e-01 -3.926629857484e-02 -3.908972756359e-01 2.200311353370e-02 7.676798336291e-04 -1.460424526637e-03
82                   2.942740543422e-01 -4.436705441002e-02 -3.898347419805e-01 2.726185028504e-01 -4.509683552659e-02 -3.883027104368e-01 2.165555149180e-02 7.297811165692e-04 -1.532031543691e-03
83                   2.824273590701e-01 -4.640522521780e-02 -3.851881411086e-01 2.610954279474e-01 -4.710867979725e-02 -3.835693343299e-01 2.133193112269e-02 7.034545794546e-04 -1.618806778717e-03
84                   2.731296042629e-01 -4.218494765986e-02 -3.833867464492e-01 2.521030651522e-01 -4.287122447776e-02 -3.816705971859e-01 2.102653911073e-02 6.862768179073e-04 -1.716149263391e-03
85                   2.677356384488e-01 -3.301743686619e-02 -3.845620402844e-01 2.469994186167e-01 -3.368986403167e-02 -3.827491385370e-01 2.073621983205e-02 6.724271654777e-04 -1.812901747427e-03
86                   2.649346884294e-01 -2.293344757833e-02 -3.844443226502e-01 2.444736648217e-01 -2.358871683221e-02 -3.825464210112e-01 2.046102360770e-02 6.552692538783e-04 -1.897901638958e-03
87                   2.616556489379e-01 -1.574768188927e-02 -3.774623755183e-01 2.414530252269e-01 -1.637811364600e-02 -3.754969684684e-01 2.020262371101e-02 6.304317567277e-04 -1.965407049902e-03
88                   2.553130524430e-01 -1.271611305437e-02 -3.606404752965e-01 2.353507727388e-01 -1.331425914813e-02 -3.586238051100e-01 1.996227970423e-02 5.981460937659e-04 -2.016670186472e-03
89                   2.457923505893e-01 -1.154369728417e-02 -3.355610685043e-01 2.260526513725e-01 -1.210512918726e-02 -3.335042866057e-01 1.973969921683e-02 5.614319030841e-04 -2.056781898601e-03
90                   2.355028455780e-01 -8.145225710560e-03 -3.076146301823e-01 2.159714152411e-01 -8.669519646057e-03 -3.055235680378e-01 1.953143033689e-02 5.242939354979e-04 -2.091062144519e-03
91                   2.277844291111e-01 5.876100675398e-04 -2.830315779267e-01 2.084518664884e-01 9.859642823528e-05 -2.809109386908e-01 1.933256262277e-02 4.890136393046e-04 -2.120639235955e-03
92                   2.247466254198e-01 1.532766988555e-02 -2.654922102983e-01 2.056078504243e-01 1.487252970228e-02 -2.633513994763e-01 1.913877499547e-02 4.551401832765e-04 -2.140810822008e-03
93                   2.259512848124e-01 3.387995964157e-02 -2.544178021812e-01 2.070033285552e-01 3.345970094683e-02 -2.522740466868e-01 1.894795625718e-02 4.202586947429e-04 -2.143755494331e-03
94                   2.287253911042e-01 5.341877938784e-02 -2.455413795220e-01 2.099637340301e-01 5.303616861243e-02 -2.434177238939e-01 1.876165707412e-02 3.826107754043e-04 -2.123655628067e-03
95                   2.299157170862e-01 7.205231613735e-02 -2.336607471323e-01 2.113288658646e-01 7.170912320950e-02 -2.315804499012e-01 1.858685122166e-02 3.431929278564e-04 -2.080297231040e-03
96                   2.280322892367e-01 8.943879995159e-02 -2.157687989191e-01 2.096042562986e-01 8.913196882146e-02 -2.137486945391e-01 1.842803293807e-02 3.068311301325e-04 -2.020104380068e-03
97                   2.240642584225e-01 1.066160570864e-01 -1.926839700057e-01 2.057797965147e-01 1.063352745990e-01 -1.907304002083e-01 1.828446190778e-02 2.807824874050e-04 -1.953569797380e-03
98                   2.206179826757e-01 1.246896198168e-01 -1.684258631286e-01 2.024640430370e-01 1.244183916873e-01 -1.665359834345e-01 1.815393963865e-02 2.712281295143e-04 -1.889879694096e-03
99                   2.201221658695e-01 1.439305162213e-01 -1.477165939957e-01 2.020907054038e-01 1.436495325224e-01 -1.458836579098e-01 1.803146046571e-02 2.809836989172e-04 -1.832936085929e-03
100                  2.233246840715e-01 1.639671756959e-01 -1.332975877105e-01 2.054101182010e-01 1.636581949252e-01 -1.315163096172e-01 1.791456587047e-02 3.089807706757e-04 -1.781278093306e-03
101                  2.290184418687e-01 1.837655582104e-01 -1.247516541679e-01 2.112167064058e-01 1.834140106293e-01 -1.230213210980e-01 1.780173546290e-02 3.515475810229e-04 -1.730333069959e-03
102                  2.347893058946e-01 2.018155777263e-01 -1.190871063735e-01 2.170943841337e-01 2.014121035830e-01 -1.174119249101e-01 1.769492176093e-02 4.034741433304e-04 -1.675181463416e-03
103                  2.382808282068e-01 2.162586983930e-01 -1.127780965632e-01 2.206840695564e-01 2.157991481543e-01 -1.111651353897e-01 1.759675865043e-02 4.595502387352e-04 -1.612961173543e-03
104                  2.385702744572e-01 2.256397937536e-01 -1.036164118734e-01 2.210600455526e-01 2.251231835445e-01 -1.020714498008e-01 1.751022890467e-02 5.166102091232e-04 -1.544962072688e-03
105                  2.364460527785e-01 2.294100747515e-01 -9.159538493729e-02 2.190094309113e-01 2.288352028106e-01 -9.012025597299e-02 1.743662186723e-02 5.748719409491e-04 -1.475128964305e-03
106                  2.337289173230e-01 2.280828299327e-01 -7.820029401262e-02 2.163543301566e-01 2.274478735103e-01 -7.679226225743e-02 1.737458716633e-02 6.349564223065e-04 -1.408031755191e-03
107                  2.320858326208e-01 2.231075197307e-01 -6.568400920411e-02 2.147662018430e-01 2.224117002683e-01 -6.433587643391e-02 1.731963077778e-02 6.958194624417e-04 -1.348132770205e-03
108                  2.322639734535e-01 2.161116830798e-01 -5.591298984449e-02 2.149966673831e-01 2.153559701593e-01 -5.461540305687e-02 1.726730607040e-02 7.557129205085e-04 -1.297586787625e-03
109                  2.340306044171e-01 2.080630752394e-01 -4.985721973922e-02 2.168134667504e-01 2.072508233643e-01 -4.860197994022e-02 1.721713766668e-02 8.122518751236e-04 -1.255239798992e-03
110                  2.364277469597e-01 1.990205600067e-01 -4.729926026304e-02 2.192565835238e-01 1.981575352229e-01 -4.608149040326e-02 1.717116343588e-02 8.630247837117e-04 -1.217769859774e-03
111                  2.382959814509e-01 1.885827368229e-01 -4.705470408929e-02 2.211631430324e-01 1.876774137828e-01 -4.587388682691e-02 1.713283841853e-02 9.053230400223e-04 -1.180817262377e-03
112                  2.387836016764e-01 1.766310130838e-01 -4.763256314365e-02 2.216786281290e-01 1.756926550770e-01 -4.649199459037e-02 1.710497354738e-02 9.383580068415e-04 -1.140568553279e-03
113                  2.377431431784e-01 1.636846489641e-01 -4.775215672636e-02 2.206546438241e-01 1.627211372188e-01 -4.665669221895e-02 1.708849935430e-02 9.635117453199e-04 -1.095464507413e-03
114                  2.356468055060e-01 1.507449597401e-01 -4.670701468320e-02 2.185644710211e-01 1.497613825616e-01 -4.566088462250e-02 1.708233448496e-02 9.835771784947e-04 -1.046130060696e-03
115                  2.332847774951e-01 1.387353935765e-01 -4.435551778590e-02 2.162013166902e-01 1.377338587013e-01 -4.336141528225e-02 1.708346080492e-02 1.001534875193e-03 -9.941025036489e-04
116                  2.314078865272e-01 1.282271050122e-01 -4.104046909155e-02 2.143189498831e-01 1.272074490331e-01 -4.009954855914e-02 1.708893664415e-02 1.019655979135e-03 -9.409205324125e-04
117                  2.305046753851e-01 1.193247439109e-01 -3.729299417360e-02 2.134089502048e-01 1.182856604002e-01 -3.640622099222e-02 1.709572518022e-02 1.039083510648e-03 -8.867731813805e-04
118                  2.306402156327e-01 1.119900688548e-01 -3.355376410083e-02 2.135384704462e-01 1.109297328583e-01 -3.272333977866e-02 1.710174518656e-02 1.060335996466e-03 -8.304243221726e-04
119                  2.315277566643e-01 1.061345323704e-01 -3.014222232318e-02 2.144213503503e-01 1.050507750999e-01 -2.937219547210e-02 1.710640631399e-02 1.083757270549e-03 -7.700268510726e-04
120                  2.326678819369e-01 1.016591423071e-01 -2.713954750170e-02 2.155583026968e-01 1.005492025469e-01 -2.643587901884e-02 1.710957924009e-02 1.109939760223e-03 -7.036684828630e-04
121                  2.335073292269e-01 9.837062995628e-02 -2.437379200423e-02 2.163954961045e-01 9.723063667603e-02 -2.374324160409e-02 1.711183312243e-02 1.139993280244e-03 -6.305504001445e-04
122                  2.337035239971e-01 9.603232111077e-02 -2.144669559234e-02 2.165895128039e-01 9.485735420257e-02 -2.089541522879e-02 1.711401119328e-02 1.174966908201e-03 -5.512803635420e-04
123                  2.332713304539e-01 9.438776237757e-02 -1.788367541511e-02 2.161545324465e-01 9.317234697993e-02 -1.741597423460e-02 1.711679800737e-02 1.215415397644e-03 -4.677011805141e-04
124                  2.324875225559e-01 9.323377674139e-02 -1.342709837910e-02 2.153668301029e-01 9.197266703760e-02 -1.304472776318e-02 1.712069245298e-02 1.261109703786e-03 -3.823706159216e-04
125                  2.316562715504e-01 9.248210685783e-02 -8.215982429922e-03 2.145306331494e-01 9.117069164522e-02 -7.917893822351e-03 1.712563840101e-02 1.311415212612e-03 -2.980886075709e-04
126                  2.310037265324e-01 9.215756436124e-02 -2.673546643601e-03 2.138725606813e-01 9.079229693416e-02 -2.456630875050e-03 1.713116585115e-02 1.365267427073e-03 -2.169157685514e-04
127                  2.305995502606e-01 9.226670697080e-02 2.758695650238e-03 2.134616574013e-01 9.084551986502e-02 2.898788933826e-03 1.713789285931e-02 1.421187105780e-03 -1.400932835885e-04
128                  2.303995827130e-01 9.278659892767e-02 7.674271752052e-03 2.132530142081e-01 9.130932997654e-02 7.742142240021e-03 1.714656850488e-02 1.477268951134e-03 -6.787048796956e-05
129                  2.303260550805e-01 9.367531274726e-02 1.176523092527e-02 2.131678957524e-01 9.214379040469e-02 1.176508834153e-02 1.715815932805e-02 1.531522342565e-03 1.425837395903e-07
130                  2.303394829824e-01 9.484907331640e-02 1.481826526896e-02 2.131659208202e-01 9.326694942608e-02 1.475358100815e-02 1.717356216222e-02 1.582123890323e-03 6.468426080574e-05
131                  2.304296547715e-01 9.619732792568e-02 1.668152780758e-02 2.132363071581e-01 9.456969250216e-02 1.655525897503e-02 1.719334761340e-02 1.627635423520e-03 1.262688325529e-04
132                  2.305833659396e-01 9.762684938939e-02 1.731887707000e-02 2.133655177095e-01 9.596003694915e-02 1.713383317537e-02 1.721784823007e-02 1.666812440237e-03 1.850438946260e-04
133                  2.307363196082e-01 9.904877799286e-02 1.673879944308e-02 2.134890232758e-01 9.735004726550e-02 1.649807952969e-02 1.724729633248e-02 1.698730727369e-03 2.407199133960e-04
134                  2.308103358192e-01 1.003850424088e-01 1.491899986115e-02 2.135286982193e-01 9.866258838593e-02 1.462628574840e-02 1.728163759986e-02 1.722454022874e-03 2.927141127567e-04
135                  2.307312108242e-01 1.015822036233e-01 1.190898726169e-02 2.134106926010e-01 9.984499082915e-02 1.156882206142e-02 1.732051822319e-02 1.737212794105e-03 3.401652002679e-04
136                  2.304947625247e-01 1.026154054200e-01 7.693269714414e-03 2.131313569300e-01 1.008731258489e-01 7.311016099954e-03 1.736340559467e-02 1.742279571093e-03 3.822536144604e-04
137                  2.301464878989e-01 1.035020332026e-01 2.253391150021e-03 2.127368573535e-01 1.017649641896e-01 1.835216926114e-03 1.740963054539e-02 1.737069012977e-03 4.181742239074e-04
138                  2.297371135493e-01 1.042426774321e-01 -4.402749237718e-03 2.122785351184e-01 1.025214571156e-01 -4.850051357861e-03 1.745857843090e-02 1.721220316462e-03 4.473021201435e-04
139                  2.293110337703e-01 1.048496934479e-01 -1.210431840417e-02 2.118013417999e-01 1.031550920081e-01 -1.257349280977e-02 1.750969197036e-02 1.694601439798e-03 4.691744055945e-04
140                  2.288845207299e-01 1.052862577745e-01 -2.052286330852e-02 2.113220298493e-01 1.036288692380e-01 -2.100650296429e-02 1.756249088061e-02 1.657388536508e-03 4.836396557722e-04
141                  2.284440428654e-01 1.055032185127e-01 -2.923697871809e-02 2.108276876182e-01 1.038930346412e-01 -2.972770540003e-02 1.761635524727e-02 1.610183871480e-03 4.907266819375e-04
142                  2.279547472456e-01 1.054803244201e-01 -3.775052641724e-02 2.102838484207e-01 1.039261926054e-01 -3.824134288334e-02 1.767089882493e-02 1.554131814734e-03 4.908164661044e-04
143                  2.273813475838e-01 1.052302395970e-01 -4.558715970305e-02 2.096558706049e-01 1.037394091295e-01 -4.607180125845e-02 1.772547697889e-02 1.490830467504e-03 4.846415554032e-04
144                  2.267077398860e-01 1.047658005660e-01 -5.229602922441e-02 2.089278944910e-01 1.033433937660e-01 -5.276964745617e-02 1.777984539499e-02 1.422406800014e-03 4.736182317595e-04
145                  2.259398622158e-01 1.041078064920e-01 -5.750269864789e-02 2.081061493970e-01 1.027561200112e-01 -5.796257604104e-02 1.783371281874e-02 1.351686480783e-03 4.598773931579e-04
146                  2.251055943622e-01 1.032725175668e-01 -6.090392034449e-02 2.072185425251e-01 1.019914938441e-01 -6.134962893160e-02 1.788705183705e-02 1.281023722728e-03 4.457085871144e-04
147                  2.242533219336e-01 1.023150531673e-01 -6.238844640672e-02 2.063135110203e-01 1.011031514495e-01 -6.282150319328e-02 1.793981091325e-02 1.211901717783e-03 4.330567865691e-04
148                  2.234306576673e-01 1.012915319148e-01 -6.208115721010e-02 2.054384484806e-01 1.001461072051e-01 -6.250487665527e-02 1.799220918672e-02 1.145424709713e-03 4.237194451767e-04
149                  2.226941731067e-01 1.003058565173e-01 -6.023611931452e-02 2.046499482344e-01 9.922338684463e-02 -6.065539089755e-02 1.804422487231e-02 1.082469672671e-03 4.192715830315e-04
150                  2.221021340547e-01 9.949197692559e-02 -5.715799251293e-02 2.040065161935e-01 9.846820048918e-02 -5.757892190903e-02 1.809561786123e-02 1.023776436407e-03 4.209293960958e-04
151                  2.217179669573e-01 9.898614655328e-02 -5.313834546812e-02 2.035720004095e-01 9.801612826964e-02 -5.356786232655e-02 1.814596654782e-02 9.700182836456e-04 4.295168584300e-04
152                  2.215815347379e-01 9.884851559641e-02 -4.846880617115e-02 2.033867567025e-01 9.792666839946e-02 -4.891406143042e-02 1.819477803539e-02 9.218471969572e-04 4.452552592667e-04