# Field minima and maxima
# Time              	field               	min                 	location(min)       	max                 	location(max)       
6000                	nut                 	0.000000000000e+00	(8.437898300276e+00 -5.920404810733e-01 1.813615090224e-01)	1.136737784163e-02	(5.037574404762e+00 -4.375000000000e-01 6.875000000000e-01)
6000                	U                   	(3.764615143113e-01 -6.676202216538e-01 -3.329459576075e-01)	(6.332466141351e-02 -5.198524630890e-01 3.529802189081e-01)	(1.385714790016e+00 1.968854934742e-01 5.198792898569e-01)	(2.231850049964e-01 3.438097393200e-01 1.153293157429e+00)
6000                	k                   	4.168283579457e-08	(9.062423603476e-01 -7.317391147522e-01 1.238552004435e+00)	6.834919680559e-02	(4.479538690476e+00 -6.250000000000e-02 1.062500000000e+00)
6000                	p                   	-7.235156223486e-01	(2.250477360024e-01 3.124913579869e-02 1.149358398626e+00)	4.937651948339e-01	(-8.227319210434e-04 -9.369350714277e-02 5.940902298168e-01)
6000                	omega               	2.912548203243e-03	(1.391355029508e-01 6.822231623542e-01 8.468430716542e-01)	1.124786546096e+03	(8.408937733445e+00 6.423924636602e-01 1.148394594725e+00)
