# Solver information
# Time              	U_solver            	Ux_initial          	Ux_final            	Ux_iters            	Uy_initial          	Uy_final            	Uy_iters            	Uz_initial          	Uz_final            	Uz_iters            	U_converged         	k_solver            	k_initial           	k_final             	k_iters             	k_converged         	p_solver            	p_initial           	p_final             	p_iters             	p_converged         	omega_solver        	omega_initial       	omega_final         	omega_iters         	omega_converged     
1                   	DILUPBiCGStab	9.999999939380e-01	3.845283918140e-04	5	9.999999721900e-01	3.837215925550e-04	5	1.000000000000e+00	3.621674579860e-04	4	false	DILUPBiCGStab	1.000000000000e+00	1.559967815270e-04	1	true	GAMGPCG	1.000000000000e+00	5.717915067260e-04	17	true	DILUPBiCGStab	1.412552906790e-01	8.221075702600e-06	1	true
2                   	DILUPBiCGStab	1.046901258960e-02	2.016361077480e-06	3	3.012671172240e-02	6.281093589460e-06	3	3.310085408610e-01	2.258887502580e-04	3	false	DILUPBiCGStab	5.954653993270e-02	5.146472851320e-05	1	true	GAMGPCG	3.700899397810e-02	2.802765207900e-05	4	true	DILUPBiCGStab	1.916893426690e-02	9.724161993620e-06	1	true
3                   	DILUPBiCGStab	1.734905139350e-02	1.156919835820e-05	2	2.339074194020e-02	7.113752754140e-06	3	1.620715770220e-01	4.956637660200e-05	3	false	DILUPBiCGStab	1.315518199120e-02	2.061481896170e-06	2	true	GAMGPCG	1.407563345540e-02	9.265386588220e-06	5	true	DILUPBiCGStab	5.160125507880e-03	8.967115950840e-07	2	true
4                   	DILUPBiCGStab	3.354255252710e-02	5.016246683950e-06	3	1.942121383440e-02	6.462768728540e-06	3	3.106390007650e-01	8.466867147250e-05	3	false	DILUPBiCGStab	8.533355216460e-03	1.744896187410e-06	2	true	GAMGPCG	3.245786068730e-01	1.124940856270e-04	6	true	DILUPBiCGStab	5.627785728910e-03	1.390014203980e-06	2	true
5                   	DILUPBiCGStab	2.630259166300e-02	1.296821813470e-05	2	2.910856657160e-02	6.286267695990e-06	3	1.516572325770e-01	1.142455744790e-04	2	false	DILUPBiCGStab	1.650430006110e-02	1.450515027130e-06	2	true	GAMGPCG	1.909741437080e-02	1.490125464800e-05	6	true	DILUPBiCGStab	7.428050319790e-03	1.355745734620e-06	2	true
6                   	DILUPBiCGStab	6.225414447340e-02	4.129577085480e-05	3	3.955305081970e-02	8.436538322640e-06	3	2.471097540770e-01	1.699051710590e-04	2	false	DILUPBiCGStab	1.193513888710e-02	1.033457102470e-05	1	true	GAMGPCG	8.127399186560e-03	5.565697596210e-06	5	true	DILUPBiCGStab	8.519394606020e-03	7.318851716520e-06	1	true
7                   	DILUPBiCGStab	3.701885653470e-02	2.936181202590e-05	2	5.493587266250e-02	9.421055295640e-06	3	3.674572626090e-01	2.981771202200e-04	2	false	DILUPBiCGStab	1.324119340680e-02	1.034453846080e-06	2	true	GAMGPCG	4.255910858540e-02	3.379221984400e-05	6	true	DILUPBiCGStab	1.203717580020e-02	2.288113021590e-06	2	true
8                   	DILUPBiCGStab	2.557663989270e-02	1.469605912510e-05	2	1.115732846470e-01	9.769457951680e-05	2	2.596065462390e-01	2.851893690020e-05	3	false	DILUPBiCGStab	1.135433816940e-02	1.173452043170e-06	2	true	GAMGPCG	2.037135618500e-02	1.425224120520e-05	6	true	DILUPBiCGStab	8.274466897730e-03	6.981521784020e-07	2	true
9                   	DILUPBiCGStab	2.869429291040e-02	2.065180654390e-05	2	7.500617737020e-02	5.837437845150e-05	2	3.691438731250e-01	2.077464246410e-04	2	false	DILUPBiCGStab	8.791176531630e-03	8.708555734670e-07	2	true	GAMGPCG	7.071842366840e-03	3.672026588700e-06	5	true	DILUPBiCGStab	6.219329764140e-03	5.211029416630e-07	2	true
10                  	DILUPBiCGStab	3.487888605510e-02	3.291456514440e-05	2	4.775697609380e-02	8.476823526970e-06	3	2.269939948720e-01	3.228125631420e-05	3	false	DILUPBiCGStab	1.101792076820e-02	1.736586648670e-06	2	true	GAMGPCG	1.561713434780e-02	6.980580322260e-06	6	true	DILUPBiCGStab	5.574632907800e-03	8.666818413090e-07	2	true
11                  	DILUPBiCGStab	1.127009205550e-01	8.770652463120e-05	2	6.124845629680e-02	2.769802082110e-05	3	2.637678957500e-01	2.605482323800e-04	2	false	DILUPBiCGStab	1.028217941800e-02	1.930854985190e-06	2	true	GAMGPCG	1.172506775270e-02	4.043858434150e-06	6	true	DILUPBiCGStab	4.943038772840e-03	1.116269103450e-06	2	true
12                  	DILUPBiCGStab	1.283537115520e-01	6.406411119170e-05	3	7.187786512190e-02	3.815798533750e-05	3	1.696881457450e-01	1.046940984140e-04	3	false	DILUPBiCGStab	6.795084119910e-03	2.028239000260e-06	2	true	GAMGPCG	4.125721552320e-03	2.877607218600e-06	5	true	DILUPBiCGStab	3.071803904500e-03	4.606438572200e-07	2	true
13                  	DILUPBiCGStab	5.668351882510e-02	3.495478745540e-05	3	6.911171397350e-02	3.259321681760e-05	3	1.280238054930e-01	4.534880337060e-05	3	false	DILUPBiCGStab	5.758410659450e-03	5.819265219190e-07	2	true	GAMGPCG	5.831183329150e-03	3.793164507110e-06	5	true	DILUPBiCGStab	2.440799723510e-03	2.955895790720e-07	2	true
14                  	DILUPBiCGStab	2.132925955830e-02	6.552878731170e-06	3	6.938747961360e-02	5.542916614110e-05	3	1.826163504410e-01	4.875802693490e-05	3	false	DILUPBiCGStab	1.238912387040e-02	1.347878178640e-06	2	true	GAMGPCG	1.489873104390e-01	1.079789881790e-04	5	true	DILUPBiCGStab	3.004934811050e-03	3.887538244400e-07	2	true
15                  	DILUPBiCGStab	2.216054172850e-02	4.994662825010e-06	3	8.288529434850e-02	2.655928241270e-05	3	3.342965629880e-01	3.240135808630e-04	2	false	DILUPBiCGStab	7.822072207820e-03	9.615527904550e-07	2	true	GAMGPCG	1.469484428190e-02	1.443441123680e-05	5	true	DILUPBiCGStab	3.106852953350e-03	4.747978255920e-07	2	true
16                  	DILUPBiCGStab	2.125372373120e-02	5.396590113680e-06	3	7.063901104030e-02	1.262330229790e-06	4	1.932005544580e-01	4.400069171030e-05	3	false	DILUPBiCGStab	5.703202693650e-03	6.817367564520e-07	2	true	GAMGPCG	1.202891942390e-02	5.874508433270e-06	5	true	DILUPBiCGStab	1.915665365980e-03	2.128159282560e-07	2	true
17                  	DILUPBiCGStab	2.742781997000e-02	7.505260865920e-06	3	5.709265281210e-02	2.233896499100e-05	3	1.230048564020e-01	5.251243686790e-05	3	false	DILUPBiCGStab	1.094456220070e-02	2.075656687720e-06	2	true	GAMGPCG	1.364942798240e-01	3.764561754230e-05	6	true	DILUPBiCGStab	1.962070185270e-03	2.980612774110e-07	2	true
18                  	DILUPBiCGStab	7.438073644440e-02	2.030236542270e-05	3	7.003720229880e-02	5.643930393200e-05	3	9.399772174130e-02	3.087888951090e-05	3	false	DILUPBiCGStab	1.109039543090e-02	2.521371774700e-06	2	true	GAMGPCG	1.123319617790e-02	5.344490475790e-06	5	true	DILUPBiCGStab	2.478951824600e-03	3.867286928910e-07	2	true
19                  	DILUPBiCGStab	5.674134565790e-02	2.291630499730e-05	3	7.208764769290e-02	3.661179122820e-05	3	8.099165173350e-02	3.409489940250e-05	3	false	DILUPBiCGStab	6.897415368630e-03	1.789149618430e-06	2	true	GAMGPCG	7.471991994290e-03	3.317532846290e-06	5	true	DILUPBiCGStab	1.679692547440e-03	1.907459236010e-07	2	true
20                  	DILUPBiCGStab	2.593965827450e-02	1.588493834060e-05	3	6.296786194660e-02	2.599514618470e-05	3	8.195069109640e-02	3.298143961420e-05	3	false	DILUPBiCGStab	4.809416343440e-03	7.583709810860e-07	2	true	GAMGPCG	1.469233417230e-02	1.044120176760e-05	5	true	DILUPBiCGStab	1.163836857230e-03	1.578034241530e-07	2	true
21                  	DILUPBiCGStab	1.529864319590e-02	5.457377421250e-06	3	5.018466935690e-02	2.383517960220e-05	3	8.126928908960e-02	2.870794827010e-05	3	false	DILUPBiCGStab	8.284432953080e-03	9.080927733860e-07	2	true	GAMGPCG	6.845915034280e-02	5.613395570340e-05	5	true	DILUPBiCGStab	1.175439649350e-03	1.752495608020e-07	2	true
22                  	DILUPBiCGStab	1.659579298790e-02	8.227253641490e-06	3	4.411635209650e-02	2.246985531370e-05	3	6.634987802180e-02	2.027068831550e-05	3	false	DILUPBiCGStab	5.489176224290e-03	4.914827024510e-07	2	true	GAMGPCG	3.509473387070e-02	1.134825288770e-05	5	true	DILUPBiCGStab	1.380400697760e-03	1.347083587110e-07	2	true
23                  	DILUPBiCGStab	1.715894245830e-02	9.239375568300e-06	3	3.781013558640e-02	1.472298743470e-05	3	4.642900963880e-02	1.487484350930e-05	3	false	DILUPBiCGStab	4.485435588430e-03	4.515676967870e-07	2	true	GAMGPCG	1.385817625900e-01	9.339875827020e-05	5	true	DILUPBiCGStab	1.014211087300e-03	1.653127795060e-07	2	true
24                  	DILUPBiCGStab	2.012254736800e-02	7.976205385420e-06	3	3.784626889270e-02	1.868739825740e-05	3	4.302115992770e-02	3.457058935450e-05	3	false	DILUPBiCGStab	3.725111678980e-03	4.983878424860e-07	2	true	GAMGPCG	2.690188848600e-02	2.256716032640e-05	5	true	DILUPBiCGStab	7.485986850730e-04	1.112053798730e-07	2	true
25                  	DILUPBiCGStab	2.124337963500e-02	1.051113344380e-05	3	3.746389763520e-02	2.010615156230e-05	3	4.525162367370e-02	9.466455687400e-07	4	false	DILUPBiCGStab	3.406347605260e-03	3.885355312720e-07	2	true	GAMGPCG	1.721957749520e-02	5.016711246520e-06	5	true	DILUPBiCGStab	4.926098773580e-04	7.616471680090e-08	2	true
26                  	DILUPBiCGStab	1.556654482790e-02	7.552824073800e-06	3	3.205961037960e-02	1.173948883030e-05	3	4.348012275480e-02	1.568367833310e-05	3	false	DILUPBiCGStab	2.873581345210e-03	3.687580389550e-07	2	true	GAMGPCG	2.394381492600e-02	2.354777210270e-05	4	true	DILUPBiCGStab	4.496321793950e-04	1.160085027180e-07	2	true
27                  	DILUPBiCGStab	1.158661846780e-02	4.758308382900e-06	4	2.928385397970e-02	2.096783605990e-05	3	3.729584592210e-02	1.715246620290e-05	3	false	DILUPBiCGStab	2.248758581030e-03	2.009981863700e-07	2	true	GAMGPCG	1.162567872540e-01	2.831740016900e-05	5	true	DILUPBiCGStab	7.406302310820e-04	1.482416817940e-07	2	true
28                  	DILUPBiCGStab	1.108545130220e-02	9.029749554970e-06	3	2.714575563920e-02	8.163887929030e-06	3	3.292328719680e-02	1.268174211880e-05	3	false	DILUPBiCGStab	1.708182140360e-03	1.672532685260e-07	2	true	GAMGPCG	1.090348283530e-01	3.101127592120e-05	5	true	DILUPBiCGStab	3.429260468130e-04	5.929767798770e-08	2	true
29                  	DILUPBiCGStab	1.165900387870e-02	9.604633006670e-06	3	2.548114615800e-02	1.635719697940e-05	3	3.176142861110e-02	2.617635108640e-05	3	false	DILUPBiCGStab	1.490567017820e-03	2.009313864420e-07	2	true	GAMGPCG	1.449945989560e-01	5.065519315540e-05	5	true	DILUPBiCGStab	2.635324211190e-04	6.727445126960e-08	2	true
30                  	DILUPBiCGStab	1.332306312330e-02	1.195221748810e-05	3	2.516132345170e-02	1.212429390650e-05	3	3.680606465160e-02	2.088238960280e-05	3	false	DILUPBiCGStab	1.440688515630e-03	1.935098692930e-07	2	true	GAMGPCG	3.509741373330e-02	1.048524523340e-05	5	true	DILUPBiCGStab	2.524662160220e-04	8.759540623350e-08	2	true
31                  	DILUPBiCGStab	1.350317585190e-02	1.178118541740e-05	3	2.443306635000e-02	8.906939630910e-06	3	4.069615567220e-02	1.613381189940e-05	3	false	DILUPBiCGStab	1.315025183000e-03	2.513353864670e-07	2	true	GAMGPCG	2.615025969420e-02	7.094831397030e-06	5	true	DILUPBiCGStab	2.182600183680e-04	9.444978741570e-08	2	true
32                  	DILUPBiCGStab	1.119218288350e-02	1.083571397920e-05	3	2.328288763910e-02	1.067836637810e-05	3	3.404556823900e-02	3.261884015870e-05	3	false	DILUPBiCGStab	1.093084085450e-03	2.060943768210e-07	2	true	GAMGPCG	3.192003144360e-02	1.292308920000e-05	5	true	DILUPBiCGStab	1.866034559870e-04	6.814767820010e-08	2	true
33                  	DILUPBiCGStab	9.652158438460e-03	9.191165469720e-06	3	2.333998964760e-02	1.234112912250e-05	3	2.592109007010e-02	2.581222075360e-05	3	false	DILUPBiCGStab	9.035686570470e-04	1.536939059140e-09	3	true	GAMGPCG	5.474465012020e-02	2.540661577460e-05	5	true	DILUPBiCGStab	1.640944776790e-04	7.802846348660e-08	2	true
34                  	DILUPBiCGStab	9.530669233020e-03	2.089884559380e-06	3	2.421720828990e-02	1.587141705510e-05	3	2.276767405690e-02	1.330131497670e-05	3	false	DILUPBiCGStab	8.128832171280e-04	2.248876316830e-07	2	true	GAMGPCG	6.559782702450e-02	4.307598136520e-05	5	true	DILUPBiCGStab	1.443838289190e-04	6.203024888800e-08	2	true
35                  	DILUPBiCGStab	9.915231963060e-03	6.624335203160e-06	3	2.486045360020e-02	1.027213749500e-05	3	2.493499801810e-02	1.196853376690e-05	3	false	DILUPBiCGStab	7.421051195930e-04	1.961875844210e-07	2	true	GAMGPCG	4.171379135530e-02	3.305271594910e-05	5	true	DILUPBiCGStab	1.360419296420e-04	4.930743944880e-08	2	true
36                  	DILUPBiCGStab	1.032332080360e-02	7.089497898760e-06	3	2.519243709310e-02	1.174132376650e-05	3	2.956048036480e-02	1.258266934430e-05	3	false	DILUPBiCGStab	6.954764637120e-04	2.276083222680e-07	2	true	GAMGPCG	2.902235111240e-02	2.326465715320e-05	5	true	DILUPBiCGStab	1.289380925470e-04	6.014252749900e-08	2	true
37                  	DILUPBiCGStab	9.793532697820e-03	2.548681953240e-06	3	2.446828160950e-02	1.130559675200e-05	3	2.909318406540e-02	1.334925946190e-05	3	false	DILUPBiCGStab	6.772691672210e-04	3.089762571150e-07	2	true	GAMGPCG	2.655768594750e-02	1.586558269100e-05	5	true	DILUPBiCGStab	1.250092998670e-04	4.395799739820e-08	2	true
38                  	DILUPBiCGStab	8.804528785110e-03	1.930672497310e-06	3	2.321444265580e-02	1.923803213500e-05	3	2.409593007420e-02	6.269053634480e-06	3	false	DILUPBiCGStab	6.413437904310e-04	2.880902613760e-07	2	true	GAMGPCG	2.969722137600e-02	1.483766728140e-05	5	true	DILUPBiCGStab	1.205907271880e-04	4.275881691500e-08	2	true
39                  	DILUPBiCGStab	8.476108979000e-03	3.140225025060e-06	3	2.241975530590e-02	1.722305934120e-06	4	2.069652477870e-02	7.943581906650e-06	3	false	DILUPBiCGStab	6.216901968070e-04	2.588020402700e-07	2	true	GAMGPCG	3.520276390310e-02	1.524044860200e-05	5	true	DILUPBiCGStab	1.150512308820e-04	3.902369643630e-08	2	true
40                  	DILUPBiCGStab	8.709020542910e-03	2.919488546050e-06	3	2.172908231840e-02	4.524564451520e-06	3	2.037584271330e-02	1.570238120740e-05	3	false	DILUPBiCGStab	6.011439036590e-04	2.200279637140e-07	2	true	GAMGPCG	3.716806543360e-02	1.349349169630e-05	5	true	DILUPBiCGStab	1.098106231080e-04	3.579749420820e-08	2	true
41                  	DILUPBiCGStab	9.086111222240e-03	8.969423993640e-06	3	2.117528071070e-02	4.789879058180e-06	3	2.212169052200e-02	1.201522023230e-05	3	false	DILUPBiCGStab	5.835914987820e-04	2.244726075460e-07	2	true	GAMGPCG	3.368538138640e-02	1.153186505760e-05	5	true	DILUPBiCGStab	1.032739315340e-04	3.668710809840e-08	2	true
42                  	DILUPBiCGStab	9.376266989760e-03	2.347117982940e-06	3	2.019664866160e-02	1.511964213010e-05	3	2.291955660760e-02	1.844824124620e-05	3	false	DILUPBiCGStab	5.832932095370e-04	2.331068464550e-07	2	true	GAMGPCG	3.012975979160e-02	8.267918420940e-06	5	true	DILUPBiCGStab	9.768750935740e-05	3.215620772850e-08	2	true
43                  	DILUPBiCGStab	9.158986138850e-03	6.690088216740e-06	3	1.869679674740e-02	7.800230024710e-06	3	1.955678468620e-02	5.605049665850e-06	3	false	DILUPBiCGStab	5.771681479260e-04	2.674502822540e-07	2	true	GAMGPCG	2.949399002170e-02	1.053428845170e-05	5	true	DILUPBiCGStab	9.295554892000e-05	2.956921908690e-08	2	true
44                  	DILUPBiCGStab	8.766842784200e-03	4.961222638270e-06	3	1.718863505300e-02	8.273684608560e-06	3	1.558899848370e-02	1.072532141000e-05	3	false	DILUPBiCGStab	5.695989298920e-04	8.882687198610e-08	2	true	GAMGPCG	3.123482800950e-02	1.105635049810e-05	5	true	DILUPBiCGStab	8.797589985660e-05	2.899477085440e-08	2	true
45                  	DILUPBiCGStab	8.736635062920e-03	4.592868908600e-06	3	1.584337931690e-02	5.581157961010e-06	3	1.382724341470e-02	1.131022661410e-05	3	false	DILUPBiCGStab	5.621087059570e-04	1.998496942050e-07	2	true	GAMGPCG	3.283699642600e-02	2.745323095080e-05	4	true	DILUPBiCGStab	8.251420719900e-05	2.748150878540e-08	2	true
46                  	DILUPBiCGStab	8.980482425980e-03	4.782401084980e-06	3	1.478787477080e-02	7.004672778320e-06	3	1.367829913250e-02	1.231398232910e-05	3	false	DILUPBiCGStab	5.608585593940e-04	2.021110370630e-07	2	true	GAMGPCG	3.322183359190e-02	7.804900668930e-06	5	true	DILUPBiCGStab	7.708064091590e-05	2.589297657290e-08	2	true
47                  	DILUPBiCGStab	9.310914237220e-03	4.742124130590e-06	3	1.395253971680e-02	4.112569936980e-06	3	1.389786426780e-02	6.399301263780e-07	4	false	DILUPBiCGStab	5.654523022270e-04	1.866949630510e-07	2	true	GAMGPCG	3.197593490770e-02	3.190125418800e-05	4	true	DILUPBiCGStab	7.212632438710e-05	2.506364548910e-08	2	true
48                  	DILUPBiCGStab	9.417558189930e-03	4.983512039080e-06	3	1.318687220080e-02	4.337288967720e-06	3	1.308387182930e-02	4.007419307080e-06	3	false	DILUPBiCGStab	5.752555327670e-04	1.986605509000e-07	2	true	GAMGPCG	3.011762953910e-02	2.396784406670e-05	4	true	DILUPBiCGStab	6.747690517730e-05	2.515290013010e-08	2	true
49                  	DILUPBiCGStab	9.184034667760e-03	3.284445066630e-06	3	1.241972145910e-02	5.272900685900e-06	3	1.148204625720e-02	7.171439239840e-06	3	false	DILUPBiCGStab	5.919198662670e-04	2.263180598450e-07	2	true	GAMGPCG	2.964870462510e-02	2.582282156150e-05	4	true	DILUPBiCGStab	6.323963629410e-05	2.489971334960e-08	2	true
50                  	DILUPBiCGStab	8.859877385160e-03	3.820821096270e-06	3	1.159425859420e-02	3.477911835400e-07	4	1.013201561910e-02	2.860995214800e-07	4	false	DILUPBiCGStab	6.163661147490e-04	2.579033758600e-07	2	true	GAMGPCG	3.036389984450e-02	2.457559616930e-05	4	true	DILUPBiCGStab	5.932169244000e-05	2.525728884310e-08	2	true
51                  	DILUPBiCGStab	8.632380450810e-03	5.109862267530e-06	3	1.072508190900e-02	2.596350424250e-06	3	9.605081424000e-03	3.800956707160e-06	3	false	DILUPBiCGStab	6.435076863230e-04	3.256925007550e-07	2	true	GAMGPCG	2.982086148850e-02	1.923339738390e-05	4	true	DILUPBiCGStab	5.567331017380e-05	2.279590710880e-08	2	true
52                  	DILUPBiCGStab	8.458905640440e-03	6.511048166990e-06	3	1.003106260800e-02	4.825023006940e-06	3	9.550878102320e-03	7.178168748390e-06	3	false	DILUPBiCGStab	6.708986204910e-04	6.196261304170e-08	2	true	GAMGPCG	2.809821748880e-02	1.784866186150e-05	4	true	DILUPBiCGStab	5.244059535730e-05	2.091826541260e-08	2	true
53                  	DILUPBiCGStab	8.227784990590e-03	5.236376544260e-06	3	9.676063382630e-03	5.861548085000e-06	3	9.448492222020e-03	4.244383754110e-06	3	false	DILUPBiCGStab	6.899498104880e-04	3.014623349880e-07	2	true	GAMGPCG	2.637423294960e-02	1.630472478290e-05	4	true	DILUPBiCGStab	4.978206086730e-05	2.024078431360e-08	2	true
54                  	DILUPBiCGStab	7.869685414060e-03	3.672642377600e-06	3	9.433919588480e-03	3.921487111040e-06	3	9.041723528720e-03	5.202418791550e-06	3	false	DILUPBiCGStab	7.057427950390e-04	2.857756908600e-07	2	true	GAMGPCG	2.511359775560e-02	1.510525772650e-05	4	true	DILUPBiCGStab	4.762691684920e-05	1.981520054990e-08	2	true
55                  	DILUPBiCGStab	7.364503627090e-03	4.084422468290e-06	3	9.264172968400e-03	3.072724135700e-06	3	8.479932091440e-03	3.486720916000e-06	3	false	DILUPBiCGStab	7.215144738120e-04	6.893139161660e-07	2	true	GAMGPCG	2.501130178370e-02	1.458383237370e-05	4	true	DILUPBiCGStab	4.533487251230e-05	1.967664745390e-08	2	true
56                  	DILUPBiCGStab	6.888023957980e-03	2.213188981100e-07	4	9.041850137840e-03	2.889207010170e-06	3	8.056771867560e-03	1.222539726340e-07	4	false	DILUPBiCGStab	7.392372539990e-04	2.954975624410e-07	2	true	GAMGPCG	2.481463960200e-02	1.474027968660e-05	4	true	DILUPBiCGStab	4.302728646150e-05	1.895722160550e-08	2	true
57                  	DILUPBiCGStab	6.481995065610e-03	5.546235522220e-06	3	8.779774950940e-03	5.963481338870e-06	3	7.959481907690e-03	1.925026171500e-06	3	false	DILUPBiCGStab	7.550826665120e-04	7.340278312060e-07	2	true	GAMGPCG	2.378240767500e-02	1.457985985110e-05	4	true	DILUPBiCGStab	4.064546707990e-05	1.825170609270e-08	2	true
58                  	DILUPBiCGStab	6.079921235660e-03	5.124695012840e-06	3	8.506174221060e-03	3.657480829040e-06	3	7.963342421330e-03	3.912919806630e-06	3	false	DILUPBiCGStab	7.687220794890e-04	3.373868770460e-07	2	true	GAMGPCG	2.270120563970e-02	1.055446208830e-05	4	true	DILUPBiCGStab	3.885642109580e-05	1.577583516050e-08	2	true
59                  	DILUPBiCGStab	5.701002745450e-03	1.742823405670e-06	3	8.220541343740e-03	7.821759748410e-06	3	7.771231473940e-03	3.414128761850e-06	3	false	DILUPBiCGStab	7.696106822940e-04	7.234959984630e-07	2	true	GAMGPCG	2.177192032540e-02	8.215858301280e-06	4	true	DILUPBiCGStab	3.716622211830e-05	1.676622726670e-08	2	true
60                  	DILUPBiCGStab	5.330962898520e-03	5.257673835430e-06	3	7.962824914340e-03	2.160334349490e-06	3	7.442156293700e-03	3.170918748140e-06	3	false	DILUPBiCGStab	7.760834270940e-04	2.418409764920e-07	2	true	GAMGPCG	2.092160582790e-02	8.668510421350e-06	4	true	DILUPBiCGStab	3.553044738120e-05	1.548955273420e-08	2	true
61                  	DILUPBiCGStab	4.969784282000e-03	2.217316398460e-07	4	7.793295259820e-03	6.037707847230e-06	3	7.123369507180e-03	4.954925910020e-06	3	false	DILUPBiCGStab	7.804539438130e-04	2.645613950730e-07	2	true	GAMGPCG	2.015459370720e-02	9.233622896390e-06	4	true	DILUPBiCGStab	3.394934840600e-05	1.515817929190e-08	2	true
62                  	DILUPBiCGStab	4.567262571620e-03	2.625395881740e-06	3	7.679973635230e-03	6.272420823960e-06	3	6.927427088880e-03	1.761741541880e-06	3	false	DILUPBiCGStab	7.833336701440e-04	1.655553761570e-07	2	true	GAMGPCG	1.922380150560e-02	8.360733933400e-06	4	true	DILUPBiCGStab	3.251844942160e-05	1.355437389700e-08	2	true
63                  	DILUPBiCGStab	4.183084653340e-03	1.796158743610e-06	3	7.516865559440e-03	2.559182438390e-07	4	6.836438617610e-03	2.607491851480e-06	3	false	DILUPBiCGStab	7.793220751660e-04	8.305301174990e-08	2	true	GAMGPCG	1.846727658580e-02	7.608134359760e-06	4	true	DILUPBiCGStab	3.100370779850e-05	1.589192864100e-08	2	true
64                  	DILUPBiCGStab	3.846052654280e-03	2.892267809750e-06	3	7.339402858410e-03	4.887103713500e-06	3	6.815607576440e-03	2.354891931280e-07	4	false	DILUPBiCGStab	7.692825096890e-04	4.088836006550e-07	2	true	GAMGPCG	1.811469231160e-02	8.838493799970e-06	4	true	DILUPBiCGStab	2.961316664190e-05	1.273065117010e-08	2	true
65                  	DILUPBiCGStab	3.576694851920e-03	1.490867367210e-06	3	7.177271417250e-03	1.630577134090e-06	3	6.824514137670e-03	2.958520298830e-06	3	false	DILUPBiCGStab	7.601119159130e-04	6.010654389160e-07	2	true	GAMGPCG	1.792007267290e-02	1.074278371090e-05	4	true	DILUPBiCGStab	2.821747441100e-05	1.346581894920e-08	2	true
66                  	DILUPBiCGStab	3.330192941190e-03	3.115981295540e-06	3	6.984184370010e-03	6.228188234300e-06	3	6.849215779950e-03	3.588611459800e-06	3	false	DILUPBiCGStab	7.481996968080e-04	3.821601652440e-07	2	true	GAMGPCG	1.768383793230e-02	1.177903289920e-05	4	true	DILUPBiCGStab	2.695474890600e-05	1.536700742060e-08	2	true
67                  	DILUPBiCGStab	3.088418037320e-03	1.190301030870e-06	3	6.795646107150e-03	1.180770011340e-06	3	6.895476399980e-03	3.402541265520e-06	3	false	DILUPBiCGStab	7.366907962060e-04	3.045217625910e-07	2	true	GAMGPCG	1.736406063330e-02	1.099201266840e-05	4	true	DILUPBiCGStab	2.573108572870e-05	1.163945539660e-08	2	true
68                  	DILUPBiCGStab	2.850871278390e-03	9.799417976980e-07	3	6.544504160840e-03	2.807882504310e-06	3	6.954249017650e-03	3.070152725010e-06	3	false	DILUPBiCGStab	7.242630093650e-04	3.183261828340e-07	2	true	GAMGPCG	1.708626121790e-02	9.617453132080e-06	4	true	DILUPBiCGStab	2.450791662060e-05	1.086114003920e-08	2	true
69                  	DILUPBiCGStab	2.655183243970e-03	5.380486573910e-07	3	6.347579453970e-03	2.013750796600e-06	3	7.023512443800e-03	3.440030259900e-06	3	false	DILUPBiCGStab	7.158656201370e-04	2.713830982060e-07	2	true	GAMGPCG	1.690091240740e-02	8.363475364840e-06	4	true	DILUPBiCGStab	2.334367908270e-05	1.081896809380e-08	2	true
70                  	DILUPBiCGStab	2.504607185930e-03	1.716214884800e-06	3	6.169158300040e-03	4.347152568200e-06	3	7.101894702650e-03	2.910496041040e-06	3	false	DILUPBiCGStab	7.097079131680e-04	2.822774011410e-07	2	true	GAMGPCG	1.671638819880e-02	7.894759258450e-06	4	true	DILUPBiCGStab	2.230405527210e-05	1.094125844710e-08	2	true
71                  	DILUPBiCGStab	2.379698522140e-03	1.292554272140e-06	3	6.018738693700e-03	3.225981759050e-06	3	7.153523835840e-03	5.605833629420e-06	3	false	DILUPBiCGStab	7.002128943920e-04	2.637079467700e-07	2	true	GAMGPCG	1.655225492740e-02	8.103241373700e-06	4	true	DILUPBiCGStab	2.120748564950e-05	1.058750638110e-08	2	true
72                  	DILUPBiCGStab	2.257868712290e-03	1.025496854060e-06	3	5.881381641430e-03	2.887333220380e-06	3	7.220749973750e-03	2.177827632160e-06	3	false	DILUPBiCGStab	6.953000832230e-04	2.765736824300e-07	2	true	GAMGPCG	1.639198643100e-02	8.407175108490e-06	4	true	DILUPBiCGStab	2.026742296350e-05	9.636346466250e-09	2	true
73                  	DILUPBiCGStab	2.141378069150e-03	8.319525194430e-07	3	5.738484349460e-03	2.506850443060e-06	3	7.301597327190e-03	2.610626195530e-06	3	false	DILUPBiCGStab	6.903774389350e-04	2.854020834880e-07	2	true	GAMGPCG	1.614465284140e-02	7.863502882240e-06	4	true	DILUPBiCGStab	1.947430109760e-05	9.066002838660e-09	2	true
74                  	DILUPBiCGStab	2.020481764660e-03	6.508778833690e-07	3	5.585853681000e-03	2.856625092850e-06	3	7.334794170050e-03	3.243435488460e-06	3	false	DILUPBiCGStab	6.848257339920e-04	2.734838539480e-07	2	true	GAMGPCG	1.583992216710e-02	7.431576812050e-06	4	true	DILUPBiCGStab	1.879059792540e-05	7.788405791040e-09	2	true
75                  	DILUPBiCGStab	1.903500926740e-03	5.409177988400e-07	3	5.426399551210e-03	1.489323130550e-06	3	7.313100732060e-03	9.704743715890e-07	4	false	DILUPBiCGStab	6.787699831550e-04	2.554885680490e-07	2	true	GAMGPCG	1.543180124060e-02	7.260891998490e-06	4	true	DILUPBiCGStab	1.830113553400e-05	1.236066610980e-08	2	true
76                  	DILUPBiCGStab	1.783117348660e-03	5.100579486010e-07	3	5.267404159230e-03	1.777743209390e-06	3	7.228272175300e-03	3.448443187650e-07	4	false	DILUPBiCGStab	6.777920579340e-04	2.480304600900e-07	2	true	GAMGPCG	1.500188226220e-02	7.273124142160e-06	4	true	DILUPBiCGStab	1.768092476250e-05	8.793905264330e-09	2	true
77                  	DILUPBiCGStab	1.659104561300e-03	5.005403519000e-07	3	5.119863455760e-03	1.117934227200e-07	4	7.101565844180e-03	3.319075366180e-06	3	false	DILUPBiCGStab	6.801188809970e-04	2.384366745150e-07	2	true	GAMGPCG	1.448435563870e-02	7.445653374630e-06	4	true	DILUPBiCGStab	1.680944421990e-05	7.626893198350e-09	2	true
78                  	DILUPBiCGStab	1.537354633140e-03	4.565992309260e-07	3	4.988169072390e-03	2.593552842400e-06	3	6.952667624510e-03	2.736011467040e-06	3	false	DILUPBiCGStab	6.819468924340e-04	2.398740646140e-07	2	true	GAMGPCG	1.413085722730e-02	7.737561886250e-06	4	true	DILUPBiCGStab	1.631401338510e-05	7.653489086550e-09	2	true
79                  	DILUPBiCGStab	1.426216660340e-03	3.803479071610e-07	3	4.874257000570e-03	1.887851497080e-06	3	6.784630944640e-03	2.570158891300e-06	3	false	DILUPBiCGStab	6.830981631590e-04	2.390545000400e-07	2	true	GAMGPCG	1.390918667180e-02	7.706229394130e-06	4	true	DILUPBiCGStab	1.567718476890e-05	7.391441469080e-09	2	true
80                  	DILUPBiCGStab	1.325995915750e-03	3.383390140600e-07	3	4.736702038220e-03	1.493675539350e-06	3	6.601818970280e-03	4.397598376670e-06	3	false	DILUPBiCGStab	6.809101453000e-04	2.470555423270e-07	2	true	GAMGPCG	1.367590815620e-02	7.429735818480e-06	4	true	DILUPBiCGStab	1.521176830220e-05	8.220517841220e-09	2	true
81                  	DILUPBiCGStab	1.240013174600e-03	3.991851568620e-07	3	4.601764202870e-03	1.501511740700e-06	3	6.419712639820e-03	4.448303256970e-06	3	false	DILUPBiCGStab	6.804975442080e-04	2.846350503140e-07	2	true	GAMGPCG	1.341936045550e-02	7.334545426600e-06	4	true	DILUPBiCGStab	1.465229225320e-05	5.933273569220e-09	2	true
82                  	DILUPBiCGStab	1.164050574120e-03	7.306845339920e-07	3	4.435159322830e-03	1.853300844430e-06	3	6.251981201180e-03	3.746188798700e-06	3	false	DILUPBiCGStab	6.770633618010e-04	2.617084043110e-07	2	true	GAMGPCG	1.324136950080e-02	7.374769990890e-06	4	true	DILUPBiCGStab	1.419987303450e-05	6.107252282590e-09	2	true
83                  	DILUPBiCGStab	1.095752456410e-03	4.600068802690e-07	3	4.265031155500e-03	2.775992538340e-06	3	6.120462153330e-03	4.873537235730e-06	3	false	DILUPBiCGStab	6.724851679340e-04	2.488020981150e-07	2	true	GAMGPCG	1.302511025830e-02	7.244104144390e-06	4	true	DILUPBiCGStab	1.365641029680e-05	5.443900488320e-09	2	true
84                  	DILUPBiCGStab	1.034917749050e-03	7.884418679320e-07	3	4.116794155660e-03	3.188601269320e-06	3	6.031021994660e-03	3.557298646400e-06	3	false	DILUPBiCGStab	6.706719705410e-04	2.545212792760e-07	2	true	GAMGPCG	1.271911377150e-02	6.918744622210e-06	4	true	DILUPBiCGStab	1.325541354550e-05	5.574458940870e-09	2	true
85                  	DILUPBiCGStab	9.866663837480e-04	3.612327892830e-07	3	3.983590512100e-03	3.125980955820e-06	3	5.935113455260e-03	3.012502881490e-06	3	false	DILUPBiCGStab	6.646402372400e-04	2.486151736720e-07	2	true	GAMGPCG	1.237721697990e-02	6.814778639520e-06	4	true	DILUPBiCGStab	1.276866127070e-05	5.439721649370e-09	2	true
86                  	DILUPBiCGStab	9.417718607440e-04	6.034460618150e-07	3	3.838275902530e-03	7.310883192490e-07	3	5.807504454300e-03	1.204772331000e-06	3	false	DILUPBiCGStab	6.577951765560e-04	2.418395451710e-07	2	true	GAMGPCG	1.194117421040e-02	6.843305984630e-06	4	true	DILUPBiCGStab	1.235563953530e-05	4.979826214110e-09	2	true
87                  	DILUPBiCGStab	8.966499978770e-04	6.603842406010e-07	3	3.692495853880e-03	1.612456148190e-06	3	5.675997703140e-03	5.521175180290e-06	3	false	DILUPBiCGStab	6.482941647090e-04	2.506752728230e-07	2	true	GAMGPCG	1.155728795970e-02	6.695880009480e-06	4	true	DILUPBiCGStab	1.189511703180e-05	5.663675194270e-09	2	true
88                  	DILUPBiCGStab	8.534478122930e-04	6.959581450160e-07	3	3.529995522700e-03	2.657426499360e-06	3	5.576872864190e-03	3.227553591890e-06	3	false	DILUPBiCGStab	6.392856749980e-04	2.471748244120e-07	2	true	GAMGPCG	1.126486292480e-02	6.343061445080e-06	4	true	DILUPBiCGStab	1.158076216350e-05	4.661590770060e-09	2	true