# Force             
# CofR              : (0.000000000000e+00 0.000000000000e+00 0.000000000000e+00)
#
# Time              	total_x total_y total_z	pressure_x pressure_y pressure_z	viscous_x viscous_y viscous_z
1                    4.615284891474e+01 -7.138563935030e-03 6.512271661422e-23 2.520018068427e+01 -6.440952920063e-03 0.000000000000e+00 2.095266823048e+01 -6.976110149675e-04 6.512271661422e-23
2                    4.049576142210e+01 -7.924721812038e-03 4.146330170476e-23 2.636592410586e+01 -5.721099690278e-03 0.000000000000e+00 1.412983731624e+01 -2.203622121760e-03 4.146330170476e-23
3                    2.340596180599e+01 -7.495484054823e-03 -7.350627322684e-24 1.358072508821e+01 -4.536176228955e-03 0.000000000000e+00 9.825236717778e+00 -2.959307825868e-03 -7.350627322684e-24
4                    8.669920753700e+00 -1.145359333076e-02 -3.797735544417e-23 1.793755401966e+00 -7.870509946305e-03 0.000000000000e+00 6.876165351734e+00 -3.583083384456e-03 -3.797735544417e-23
5                    3.741800736018e+00 -1.762583039457e-02 -3.515833441173e-23 -1.630503615440e+00 -1.261038315316e-02 0.000000000000e+00 5.372304351458e+00 -5.015447241412e-03 -3.515833441173e-23
6                    6.619304571506e+00 -1.995377786573e-02 -1.361479892433e-23 1.484073678770e+00 -1.316004494816e-02 0.000000000000e+00 5.135230892736e+00 -6.793732917575e-03 -1.361479892433e-23
7                    1.110342145452e+01 -1.681792678294e-02 4.808830460969e-24 5.605200352000e+00 -9.062983610634e-03 0.000000000000e+00 5.498221102523e+00 -7.754943172305e-03 4.808830460969e-24
8                    1.285139371206e+01 -1.268828580448e-02 9.589486574565e-24 7.089563772840e+00 -5.142830542876e-03 0.000000000000e+00 5.761829939221e+00 -7.545455261606e-03 9.589486574565e-24
9                    1.154173469191e+01 -1.254366750765e-02 3.828418902754e-24 5.922899290538e+00 -5.551904258219e-03 0.000000000000e+00 5.618835401368e+00 -6.991763249435e-03 3.828418902754e-24
10                   9.263407678874e+00 -1.655735128559e-02 -3.691339542097e-24 4.070976728864e+00 -9.462120218402e-03 0.000000000000e+00 5.192430950010e+00 -7.095231067185e-03 -3.691339542097e-24
11                   7.908585337816e+00 -2.071412378193e-02 -6.755233936190e-24 3.135194719388e+00 -1.272781636082e-02 0.000000000000e+00 4.773390618428e+00 -7.986307421110e-03 -6.755233936190e-24
12                   7.875220571093e+00 -2.139071229151e-02 -4.813266895924e-24 3.331398214962e+00 -1.245260824185e-02 0.000000000000e+00 4.543822356131e+00 -8.938104049660e-03 -4.813266895924e-24
13                   8.436200235669e+00 -1.871560842677e-02 -1.023988043821e-24 3.946695676916e+00 -9.507759957461e-03 0.000000000000e+00 4.489504558754e+00 -9.207848469312e-03 -1.023988043821e-24
14                   8.769353333692e+00 -1.561883255244e-02 1.418687644406e-24 4.280182742827e+00 -6.882563545133e-03 0.000000000000e+00 4.489170590865e+00 -8.736269007305e-03 1.418687644406e-24
15                   8.602088466064e+00 -1.459361872886e-02 1.514460877116e-24 4.157615673483e+00 -6.536716084872e-03 0.000000000000e+00 4.444472792581e+00 -8.056902643984e-03 1.514460877116e-24
16                   8.168858767683e+00 -1.559492288659e-02 3.077097412814e-25 3.828910039309e+00 -7.900944686029e-03 0.000000000000e+00 4.339948728373e+00 -7.693978200556e-03 3.077097412814e-25
17                   7.812152010627e+00 -1.676693394194e-02 -6.299216782302e-25 3.594000585227e+00 -9.049016667943e-03 0.000000000000e+00 4.218151425399e+00 -7.717917273995e-03 -6.299216782302e-25
18                   7.678490794003e+00 -1.653913688472e-02 -5.312996197877e-25 3.555547210005e+00 -8.730953310214e-03 0.000000000000e+00 4.122943583997e+00 -7.808183574505e-03 -5.312996197877e-25
19                   7.692479900283e+00 -1.491923194903e-02 2.961498891780e-25 3.626819960832e+00 -7.274517019917e-03 0.000000000000e+00 4.065659939451e+00 -7.644714929112e-03 2.961498891780e-25
20                   7.708369894963e+00 -1.305334852877e-02 1.092274172137e-24 3.678836290856e+00 -5.868172686719e-03 0.000000000000e+00 4.029533604108e+00 -7.185175842052e-03 1.092274172137e-24
21                   7.648755462223e+00 -1.192838712287e-02 1.383766465606e-24 3.655529454358e+00 -5.303138356246e-03 0.000000000000e+00 3.993226007865e+00 -6.625248766626e-03 1.383766465606e-24
22                   7.532543064283e+00 -1.160781697400e-02 1.247770230717e-24 3.584423297705e+00 -5.437896145903e-03 0.000000000000e+00 3.948119766578e+00 -6.169920828099e-03 1.247770230717e-24
23                   7.418769041509e+00 -1.146069089223e-02 1.057968477602e-24 3.519683931155e+00 -5.595548580525e-03 0.000000000000e+00 3.899085110354e+00 -5.865142311708e-03 1.057968477602e-24
24                   7.344346725997e+00 -1.091185020030e-02 1.086873950187e-24 3.489421186835e+00 -5.298288288691e-03 0.000000000000e+00 3.854925539162e+00 -5.613561911609e-03 1.086873950187e-24
25                   7.304902975361e+00 -9.906245807104e-03 1.325402636681e-24 3.485071906394e+00 -4.601959092603e-03 0.000000000000e+00 3.819831068967e+00 -5.304286714500e-03 1.325402636681e-24
26                   7.275144007758e+00 -8.789887746269e-03 1.590999098381e-24 3.483322083944e+00 -3.878862451028e-03 0.000000000000e+00 3.791821923814e+00 -4.911025295241e-03 1.590999098381e-24
27                   7.236513560732e+00 -7.902833938060e-03 1.737481012224e-24 3.470010555510e+00 -3.414719182915e-03 0.000000000000e+00 3.766503005222e+00 -4.488114755145e-03 1.737481012224e-24
28                   7.188176045628e+00 -7.305432258435e-03 1.761797887347e-24 3.447021819637e+00 -3.204031957904e-03 0.000000000000e+00 3.741154225990e+00 -4.101400300530e-03 1.761797887347e-24
29                   7.139969153578e+00 -6.825458654838e-03 1.756088035176e-24 3.424031863476e+00 -3.053064261603e-03 0.000000000000e+00 3.715937290102e+00 -3.772394393236e-03 1.756088035176e-24
30                   7.100144164635e+00 -6.278131544828e-03 1.798276303690e-24 3.407694503485e+00 -2.800797960997e-03 0.000000000000e+00 3.692449661150e+00 -3.477333583831e-03 1.798276303690e-24
31                   7.069412825092e+00 -5.621485633325e-03 1.893021252251e-24 3.397636217898e+00 -2.438310162683e-03 0.000000000000e+00 3.671776607193e+00 -3.183175470642e-03 1.893021252251e-24
32                   7.043292694775e+00 -4.940508130640e-03 1.994778859377e-24 3.389567834929e+00 -2.062153495012e-03 0.000000000000e+00 3.653724859846e+00 -2.878354635628e-03 1.994778859377e-24
33                   7.017514063597e+00 -4.334608265689e-03 2.064443161499e-24 3.380157472792e+00 -1.759585738150e-03 0.000000000000e+00 3.637356590805e+00 -2.575022527539e-03 2.064443161499e-24
34                   6.991075941721e+00 -3.833363199206e-03 2.100191716770e-24 3.369174536026e+00 -1.542205383639e-03 0.000000000000e+00 3.621901405695e+00 -2.291157815567e-03 2.100191716770e-24
35                   6.965542951789e+00 -3.398279989067e-03 2.125789877943e-24 3.358350177785e+00 -1.364013439804e-03 0.000000000000e+00 3.607192774004e+00 -2.034266549263e-03 2.125789877943e-24
36                   6.942639166255e+00 -2.977783366335e-03 2.161474963747e-24 3.349165749583e+00 -1.178528675768e-03 0.000000000000e+00 3.593473416672e+00 -1.799254690568e-03 2.161474963747e-24
37                   6.922700288333e+00 -2.552506651548e-03 2.208378370408e-24 3.341735249989e+00 -9.754180508192e-04 0.000000000000e+00 3.580965038344e+00 -1.577088600728e-03 2.208378370408e-24
38                   6.904852018099e+00 -2.137849361991e-03 2.254860193836e-24 3.335222913883e+00 -7.744978063362e-04 0.000000000000e+00 3.569629104216e+00 -1.363351555655e-03 2.254860193836e-24
39                   6.888080377784e+00 -1.757975855152e-03 2.291377473886e-24 3.328847932168e+00 -5.981683923067e-04 0.000000000000e+00 3.559232445616e+00 -1.159807462846e-03 2.291377473886e-24
40                   6.871995494892e+00 -1.422769540671e-03 2.318073434094e-24 3.322447340310e+00 -4.523201473237e-04 0.000000000000e+00 3.549548154582e+00 -9.704493933468e-04 2.318073434094e-24
41                   6.856805558036e+00 -1.124699670933e-03 2.341263017822e-24 3.316325965003e+00 -3.275326349091e-04 0.000000000000e+00 3.540479593033e+00 -7.971670360236e-04 2.341263017822e-24
42                   6.842832538779e+00 -8.505373164951e-04 2.365894951106e-24 3.310794909816e+00 -2.118362199324e-04 0.000000000000e+00 3.532037628963e+00 -6.387010965627e-04 2.365894951106e-24
43                   6.830136091474e+00 -5.929346366953e-04 2.391971206829e-24 3.305891203074e+00 -1.004728410082e-04 0.000000000000e+00 3.524244888400e+00 -4.924617956871e-04 2.391971206829e-24
44                   6.818502948591e+00 -3.528422391010e-04 2.416547840255e-24 3.301431608929e+00 3.838510462373e-06 0.000000000000e+00 3.517071339661e+00 -3.566807495634e-04 2.416547840255e-24
45                   6.807665696759e+00 -1.345253112044e-04 2.437520515837e-24 3.297224883327e+00 9.654322918454e-05 0.000000000000e+00 3.510440813432e+00 -2.310685403889e-04 2.437520515837e-24
46                   6.797484339340e+00 5.999457379015e-05 2.455257525584e-24 3.293208557305e+00 1.760374214526e-04 0.000000000000e+00 3.504275782035e+00 -1.160428476625e-04 2.455257525584e-24
47                   6.787958032958e+00 2.325248558455e-04 2.471465920586e-24 3.289428962410e+00 2.442209974192e-04 0.000000000000e+00 3.498529070548e+00 -1.169614157369e-05 2.471465920586e-24
48                   6.779123545052e+00 3.866859291914e-04 2.487309968856e-24 3.285942218171e+00 3.041080908691e-04 0.000000000000e+00 3.493181326882e+00 8.257783832234e-05 2.487309968856e-24
49                   6.770967036760e+00 5.253107902550e-04 2.502700874854e-24 3.282747897253e+00 3.575505872783e-04 0.000000000000e+00 3.488219139507e+00 1.677602029767e-04 2.502700874854e-24
50                   6.763415426318e+00 6.494865044053e-04 2.516939449032e-24 3.279796498649e+00 4.047737267510e-04 0.000000000000e+00 3.483618927669e+00 2.447127776543e-04 2.516939449032e-24
51                   6.756382907778e+00 7.592853091314e-04 2.529640657183e-24 3.277035447647e+00 4.453195712699e-04 0.000000000000e+00 3.479347460131e+00 3.139657378615e-04 2.529640657183e-24
52                   6.749812621751e+00 8.549279835788e-04 2.541027185708e-24 3.274440591230e+00 4.790895671010e-04 0.000000000000e+00 3.475372030521e+00 3.758384164778e-04 2.541027185708e-24
53                   6.743680822864e+00 9.373210721576e-04 2.551572635868e-24 3.272012835539e+00 5.066570200452e-04 0.000000000000e+00 3.471667987325e+00 4.306640521124e-04 2.551572635868e-24
54                   6.737974569917e+00 1.007827256842e-03 2.561554004792e-24 3.269756348483e+00 5.289265329754e-04 0.000000000000e+00 3.468218221433e+00 4.789007238665e-04 2.561554004792e-24
55                   6.732671552150e+00 1.067763444596e-03 2.570941924850e-24 3.267663563240e+00 5.466756700696e-04 0.000000000000e+00 3.465007988910e+00 5.210877745262e-04 2.570941924850e-24
56                   6.727737720291e+00 1.118103880121e-03 2.579597906285e-24 3.265716656141e+00 5.603607123742e-04 0.000000000000e+00 3.462021064150e+00 5.577431677467e-04 2.579597906285e-24
57                   6.723137529442e+00 1.159529575416e-03 2.587488397526e-24 3.263897706266e+00 5.702251559985e-04 0.000000000000e+00 3.459239823176e+00 5.893044194172e-04 2.587488397526e-24
58                   6.718843143951e+00 1.192636046094e-03 2.594720410457e-24 3.262195572941e+00 5.764950495407e-04 0.000000000000e+00 3.456647571009e+00 6.161409965537e-04 2.594720410457e-24
59                   6.714835176204e+00 1.218085408380e-03 2.601435320811e-24 3.260604983293e+00 5.794866422435e-04 0.000000000000e+00 3.454230192912e+00 6.385987661367e-04 2.601435320811e-24
60                   6.711097545572e+00 1.236617551475e-03 2.607709315426e-24 3.259121633789e+00 5.795882418930e-04 0.000000000000e+00 3.451975911782e+00 6.570293095815e-04 2.607709315426e-24
61                   6.707613000836e+00 1.248973839488e-03 2.613547200454e-24 3.257738983828e+00 5.771854488210e-04 0.000000000000e+00 3.449874017008e+00 6.717883906673e-04 2.613547200454e-24
62                   6.704362587132e+00 1.255813183798e-03 2.618938182420e-24 3.256448619825e+00 5.725959637847e-04 0.000000000000e+00 3.447913967307e+00 6.832172200135e-04 2.618938182420e-24
63                   6.701327955292e+00 1.257697064905e-03 2.623902192993e-24 3.255242538830e+00 5.660692673484e-04 0.000000000000e+00 3.446085416462e+00 6.916277975565e-04 2.623902192993e-24
64                   6.698493309110e+00 1.255120952519e-03 2.628488669087e-24 3.254114578412e+00 5.578181242543e-04 0.000000000000e+00 3.444378730698e+00 6.973028282647e-04 2.628488669087e-24
65                   6.695845401238e+00 1.248554496714e-03 2.632747174385e-24 3.253060091615e+00 5.480503115420e-04 0.000000000000e+00 3.442785309622e+00 7.005041851724e-04 2.632747174385e-24
66                   6.693372278336e+00 1.238459466885e-03 2.636707073386e-24 3.252074815401e+00 5.369790620759e-04 0.000000000000e+00 3.441297462936e+00 7.014804048093e-04 2.636707073386e-24
67                   6.691062265873e+00 1.225281837181e-03 2.640381198902e-24 3.251154189026e+00 5.248133917125e-04 0.000000000000e+00 3.439908076846e+00 7.004684454684e-04 2.640381198902e-24
68                   6.688903896003e+00 1.209434136114e-03 2.643781240302e-24 3.250293497911e+00 5.117428948608e-04 0.000000000000e+00 3.438610398092e+00 6.976912412534e-04 2.643781240302e-24
69                   6.686886405685e+00 1.191285558754e-03 2.646926702173e-24 3.249488367590e+00 4.979304905006e-04 0.000000000000e+00 3.437398038095e+00 6.933550682535e-04 2.646926702173e-24
70                   6.685000095560e+00 1.171165653601e-03 2.649841940981e-24 3.248735022719e+00 4.835164406377e-04 0.000000000000e+00 3.436265072841e+00 6.876492129629e-04 2.649841940981e-24
71                   6.683236246336e+00 1.149375282671e-03 2.652548594861e-24 3.248030163880e+00 4.686275660230e-04 0.000000000000e+00 3.435206082456e+00 6.807477166476e-04 2.652548594861e-24
72                   6.681586794797e+00 1.126195189200e-03 2.655062095825e-24 3.247370704342e+00 4.533836431843e-04 0.000000000000e+00 3.434216090456e+00 6.728115460156e-04 2.655062095825e-24
73                   6.680044102629e+00 1.101887546383e-03 2.657393975590e-24 3.246753634522e+00 4.378976343681e-04 0.000000000000e+00 3.433290468107e+00 6.639899120152e-04 2.657393975590e-24
74                   6.678600940351e+00 1.076692761212e-03 2.659555769332e-24 3.246176063979e+00 4.222721621036e-04 0.000000000000e+00 3.432424876372e+00 6.544205991083e-04 2.659555769332e-24
75                   6.677250577352e+00 1.050826749510e-03 2.661560457946e-24 3.245635318857e+00 4.065968159878e-04 0.000000000000e+00 3.431615258496e+00 6.442299335223e-04 2.661560457946e-24
76                   6.675986823703e+00 1.024481753670e-03 2.663421148404e-24 3.245128974994e+00 3.909487354509e-04 0.000000000000e+00 3.430857848708e+00 6.335330182192e-04 2.663421148404e-24
77                   6.674803975752e+00 9.978299094576e-04 2.665149304302e-24 3.244654812145e+00 3.753954999403e-04 0.000000000000e+00 3.430149163607e+00 6.224344095173e-04 2.665149304302e-24
78                   6.673696722502e+00 9.710267941708e-04 2.666754366738e-24 3.244210749833e+00 3.599977800462e-04 0.000000000000e+00 3.429485972670e+00 6.110290141246e-04 2.666754366738e-24
79                   6.672660083863e+00 9.442130998020e-04 2.668244647469e-24 3.243794818337e+00 3.448101984002e-04 0.000000000000e+00 3.428865265526e+00 5.994029014018e-04 2.668244647469e-24
80                   6.671689397556e+00 9.175146867325e-04 2.669628258138e-24 3.243405166640e+00 3.298807941591e-04 0.000000000000e+00 3.428284230915e+00 5.876338925734e-04 2.669628258138e-24
81                   6.670780324007e+00 8.910424558594e-04 2.670913266968e-24 3.243040076746e+00 3.152504681491e-04 0.000000000000e+00 3.427740247261e+00 5.757919877103e-04 2.670913266968e-24
82                   6.669928836585e+00 8.648930935454e-04 2.672107275767e-24 3.242697960975e+00 3.009533229648e-04 0.000000000000e+00 3.427230875610e+00 5.639397705806e-04 2.672107275767e-24
83                   6.669131191525e+00 8.391506151277e-04 2.673217058211e-24 3.242377343408e+00 2.870177342834e-04 0.000000000000e+00 3.426753848117e+00 5.521328808443e-04 2.673217058211e-24
84                   6.668383894944e+00 8.138879645491e-04 2.674248613584e-24 3.242076842088e+00 2.734674186791e-04 0.000000000000e+00 3.426307052856e+00 5.404205458701e-04 2.674248613584e-24
85                   6.667683680349e+00 7.891681015050e-04 2.675207464505e-24 3.241795160708e+00 2.603219930057e-04 0.000000000000e+00 3.425888519641e+00 5.288461084993e-04 2.675207464505e-24
86                   6.667027497111e+00 7.650446032274e-04 2.676098870721e-24 3.241531087540e+00 2.475971059601e-04 0.000000000000e+00 3.425496409571e+00 5.174474972673e-04 2.676098870721e-24
87                   6.666412501202e+00 7.415621466640e-04 2.676927824018e-24 3.241283493880e+00 2.353045156522e-04 0.000000000000e+00 3.425129007322e+00 5.062576310118e-04 2.676927824018e-24
88                   6.665836042363e+00 7.187571668323e-04 2.677698941279e-24 3.241051328574e+00 2.234523822510e-04 0.000000000000e+00 3.424784713789e+00 4.953047845813e-04 2.677698941279e-24
89                   6.665295648053e+00 6.966586998551e-04 2.678416416346e-24 3.240833610137e+00 2.120457533309e-04 0.000000000000e+00 3.424462037916e+00 4.846129465242e-04 2.678416416346e-24
90                   6.664789008346e+00 6.752892200349e-04 2.679084077307e-24 3.240629420051e+00 2.010870395560e-04 0.000000000000e+00 3.424159588296e+00 4.742021804789e-04 2.679084077307e-24
91                   6.664313964299e+00 6.546653242066e-04 2.679705480247e-24 3.240437898670e+00 1.905763448921e-04 0.000000000000e+00 3.423876065629e+00 4.640889793145e-04 2.679705480247e-24
92                   6.663868498986e+00 6.347982647320e-04 2.680283961195e-24 3.240258242552e+00 1.805116694605e-04 0.000000000000e+00 3.423610256433e+00 4.542865952716e-04 2.680283961195e-24
93                   6.663450728972e+00 6.156944181208e-04 2.680822633238e-24 3.240089701421e+00 1.708890802599e-04 0.000000000000e+00 3.423361027551e+00 4.448053378609e-04 2.680822633238e-24
94                   6.663058895192e+00 5.973557740619e-04 2.681324369915e-24 3.239931574328e+00 1.617029296243e-04 0.000000000000e+00 3.423127320864e+00 4.356528444377e-04 2.681324369915e-24
95                   6.662691353702e+00 5.797804417865e-04 2.681791811194e-24 3.239783205655e+00 1.529461069820e-04 0.000000000000e+00 3.422908148047e+00 4.268343348044e-04 2.681791811194e-24
96                   6.662346567595e+00 5.629631305409e-04 2.682227395523e-24 3.239643981998e+00 1.446102754299e-04 0.000000000000e+00 3.422702585596e+00 4.183528551110e-04 2.682227395523e-24
97                   6.662023099421e+00 5.468955712780e-04 2.682633386987e-24 3.239513329108e+00 1.366860609386e-04 0.000000000000e+00 3.422509770313e+00 4.102095103394e-04 2.682633386987e-24
98                   6.661719604883e+00 5.315668823787e-04 2.683011892859e-24 3.239390709654e+00 1.291632017661e-04 0.000000000000e+00 3.422328895230e+00 4.024036806125e-04 2.683011892859e-24
99                   6.661434826961e+00 5.169639017074e-04 2.683364869832e-24 3.239275621060e+00 1.220306828260e-04 0.000000000000e+00 3.422159205901e+00 3.949332188813e-04 2.683364869832e-24
100                  6.661167590075e+00 5.030715020921e-04 2.683694127967e-24 3.239167593146e+00 1.152768709227e-04 0.000000000000e+00 3.421999996929e+00 3.877946311694e-04 2.683694127967e-24
101                  6.660916794431e+00 4.898728916760e-04 2.684001340174e-24 3.239066185789e+00 1.088896489785e-04 0.000000000000e+00 3.421850608642e+00 3.809832426975e-04 2.684001340174e-24
102                  6.660681410555e+00 4.773498914278e-04 2.684288054804e-24 3.238970986600e+00 1.028565384823e-04 0.000000000000e+00 3.421710423955e+00 3.744933529455e-04 2.684288054804e-24
103                  6.660460474860e+00 4.654831837450e-04 2.684555710004e-24 3.238881609371e+00 9.716480369987e-05 0.000000000000e+00 3.421578865488e+00 3.683183800451e-04 2.684555710004e-24
104                  6.660253085519e+00 4.542525336510e-04 2.684805642444e-24 3.238797692550e+00 9.180154005956e-05 0.000000000000e+00 3.421455392969e+00 3.624509935914e-04 2.684805642444e-24
105                  6.660058398459e+00 4.436369881968e-04 2.685039092364e-24 3.238718897650e+00 8.675375288061e-05 0.000000000000e+00 3.421339500809e+00 3.568832353162e-04 2.685039092364e-24
106                  6.659875623472e+00 4.336150586877e-04 2.685257208461e-24 3.238644907651e+00 8.200843040912e-05 0.000000000000e+00 3.421230715821e+00 3.516066282786e-04 2.685257208461e-24
107                  6.659704020544e+00 4.241648870774e-04 2.685461054534e-24 3.238575425498e+00 7.755261099190e-05 0.000000000000e+00 3.421128595047e+00 3.466122760855e-04 2.685461054534e-24
108                  6.659542896541e+00 4.152643959564e-04 2.685651617085e-24 3.238510172787e+00 7.337344246999e-05 0.000000000000e+00 3.421032723754e+00 3.418909534864e-04 2.685651617085e-24
109                  6.659391602203e+00 4.068914217269e-04 2.685829812054e-24 3.238448888622e+00 6.945823283178e-05 0.000000000000e+00 3.420942713581e+00 3.374331888951e-04 2.685829812054e-24
110                  6.659249529314e+00 3.990238320940e-04 2.685996490056e-24 3.238391328505e+00 6.579449320018e-05 0.000000000000e+00 3.420858200809e+00 3.332293388939e-04 2.685996490056e-24
111                  6.659116108085e+00 3.916396296518e-04 2.686152440545e-24 3.238337263318e+00 6.236997481285e-05 0.000000000000e+00 3.420778844768e+00 3.292696548390e-04 2.686152440545e-24
112                  6.658990804659e+00 3.847170433097e-04 2.686298395846e-24 3.238286478320e+00 5.917270118869e-05 0.000000000000e+00 3.420704326340e+00 3.255443421210e-04 2.686298395846e-24
113                  6.658873118733e+00 3.782346085864e-04 2.686435035389e-24 3.238238772182e+00 5.619099572199e-05 0.000000000000e+00 3.420634346551e+00 3.220436128644e-04 2.686435035389e-24
114                  6.658762581373e+00 3.721712373696e-04 2.686562989970e-24 3.238193956115e+00 5.341350460600e-05 0.000000000000e+00 3.420568625258e+00 3.187577327636e-04 2.686562989970e-24
115                  6.658658753010e+00 3.665062776989e-04 2.686682845555e-24 3.238151853080e+00 5.082921521782e-05 0.000000000000e+00 3.420506899931e+00 3.156770624811e-04 2.686682845555e-24
116                  6.658561221575e+00 3.612195643297e-04 2.686795146561e-24 3.238112297054e+00 4.842747045858e-05 0.000000000000e+00 3.420448924521e+00 3.127920938711e-04 2.686795146561e-24
117                  6.658469600747e+00 3.562914609786e-04 2.686900398777e-24 3.238075132341e+00 4.619797966038e-05 0.000000000000e+00 3.420394468405e+00 3.100934813182e-04 2.686900398777e-24
118                  6.658383528302e+00 3.517028951453e-04 2.686999072103e-24 3.238040212910e+00 4.413082655064e-05 0.000000000000e+00 3.420343315392e+00 3.075720685947e-04 2.686999072103e-24
119                  6.658302664566e+00 3.474353862075e-04 2.687091606990e-24 3.238007401772e+00 4.221647450725e-05 0.000000000000e+00 3.420295262794e+00 3.052189117002e-04 2.687091606990e-24
120                  6.658226690977e+00 3.434710673805e-04 2.687178407128e-24 3.237976570411e+00 4.044576929690e-05 0.000000000000e+00 3.420250120566e+00 3.030252980836e-04 2.687178407128e-24
121                  6.658155308764e+00 3.397927020890e-04 2.687259848067e-24 3.237947598262e+00 3.880993953420e-05 0.000000000000e+00 3.420207710502e+00 3.009827625548e-04 2.687259848067e-24
122                  6.658088237682e+00 3.363836952651e-04 2.687336280874e-24 3.237920372202e+00 3.730059512569e-05 0.000000000000e+00 3.420167865481e+00 2.990831001394e-04 2.687336280874e-24
123                  6.658025214833e+00 3.332281001273e-04 2.687408032146e-24 3.237894786077e+00 3.590972400047e-05 0.000000000000e+00 3.420130428755e+00 2.973183761268e-04 2.687408032146e-24
124                  6.657965993568e+00 3.303106209315e-04 2.687475405767e-24 3.237870740267e+00 3.462968733711e-05 0.000000000000e+00 3.420095253300e+00 2.956809335943e-04 2.687475405767e-24
125                  6.657910342469e+00 3.276166121884e-04 2.687538684584e-24 3.237848141274e+00 3.345321350573e-05 0.000000000000e+00 3.420062201195e+00 2.941633986827e-04 2.687538684584e-24
126                  6.657858044393e+00 3.251320747498e-04 2.687598131960e-24 3.237826901346e+00 3.237339087700e-05 0.000000000000e+00 3.420031143048e+00 2.927586838728e-04 2.687598131960e-24
127                  6.657808895573e+00 3.228436491211e-04 2.687653993169e-24 3.237806938113e+00 3.138365965283e-05 0.000000000000e+00 3.420001957460e+00 2.914599894682e-04 2.687653993169e-24
128                  6.657762704781e+00 3.207386063409e-04 2.687706496714e-24 3.237788174259e+00 3.047780287360e-05 0.000000000000e+00 3.419974530523e+00 2.902608034673e-04 2.687706496714e-24
129                  6.657719292542e+00 3.188048367676e-04 2.687755855519e-24 3.237770537197e+00 2.964993675839e-05 0.000000000000e+00 3.419948755345e+00 2.891549000092e-04 2.687755855519e-24
130                  6.657678490398e+00 3.170308370688e-04 2.687802268042e-24 3.237753958784e+00 2.889450051055e-05 0.000000000000e+00 3.419924531614e+00 2.881363365583e-04 2.687802268042e-24
131                  6.657640140219e+00 3.154056957143e-04 2.687845919340e-24 3.237738375035e+00 2.820624570285e-05 0.000000000000e+00 3.419901765184e+00 2.871994500115e-04 2.687845919340e-24
132                  6.657604093564e+00 3.139190771979e-04 2.687886982034e-24 3.237723725876e+00 2.758022533297e-05 0.000000000000e+00 3.419880367688e+00 2.863388518649e-04 2.687886982034e-24
133                  6.657570211074e+00 3.125612052267e-04 2.687925617192e-24 3.237709954895e+00 2.701178265460e-05 0.000000000000e+00 3.419860256179e+00 2.855494225721e-04 2.687925617192e-24
134                  6.657538361909e+00 3.113228450662e-04 2.687961975161e-24 3.237697009115e+00 2.649653985212e-05 0.000000000000e+00 3.419841352794e+00 2.848263052141e-04 2.687961975161e-24
135                  6.657508423221e+00 3.101952852303e-04 2.687996196314e-24 3.237684838789e+00 2.603038663868e-05 0.000000000000e+00 3.419823584433e+00 2.841648985916e-04 2.687996196314e-24
136                  6.657480279658e+00 3.091703187004e-04 2.688028411770e-24 3.237673397191e+00 2.560946886307e-05 0.000000000000e+00 3.419806882467e+00 2.835608498373e-04 2.688028411770e-24
137                  6.657453822897e+00 3.082402238259e-04 2.688058744033e-24 3.237662640438e+00 2.523017717232e-05 0.000000000000e+00 3.419791182459e+00 2.830100466536e-04 2.688058744033e-24
138                  6.657428951215e+00 3.073977450242e-04 2.688087307625e-24 3.237652527310e+00 2.488913577015e-05 0.000000000000e+00 3.419776423904e+00 2.825086092540e-04 2.688087307625e-24
139                  6.657405569076e+00 3.066360734135e-04 2.688114209624e-24 3.237643019090e+00 2.458319133156e-05 0.000000000000e+00 3.419762549986e+00 2.820528820820e-04 2.688114209624e-24
140                  6.657383586757e+00 3.059488274820e-04 2.688139550191e-24 3.237634079407e+00 2.430940210640e-05 0.000000000000e+00 3.419749507350e+00 2.816394253756e-04 2.688139550191e-24
141                  6.657362919981e+00 3.053300338770e-04 2.688163423047e-24 3.237625674093e+00 2.406502723926e-05 0.000000000000e+00 3.419737245888e+00 2.812650066378e-04 2.688163423047e-24
142                  6.657343489589e+00 3.047741084132e-04 2.688185915933e-24 3.237617771051e+00 2.384751634490e-05 0.000000000000e+00 3.419725718538e+00 2.809265920683e-04 2.688185915933e-24
143                  6.657325221223e+00 3.042758373637e-04 2.688207111001e-24 3.237610340124e+00 2.365449935993e-05 0.000000000000e+00 3.419714881100e+00 2.806213380037e-04 2.688207111001e-24
144                  6.657308045033e+00 3.038303591079e-04 2.688227085212e-24 3.237603352978e+00 2.348377669414e-05 0.000000000000e+00 3.419704692055e+00 2.803465824138e-04 2.688227085212e-24
145                  6.657291895397e+00 3.034331461700e-04 2.688245910694e-24 3.237596782993e+00 2.333330968654e-05 0.000000000000e+00 3.419695112404e+00 2.800998364834e-04 2.688245910694e-24
146                  6.657276710666e+00 3.030799876930e-04 2.688263655062e-24 3.237590605155e+00 2.320121137431e-05 0.000000000000e+00 3.419686105511e+00 2.798787763187e-04 2.688263655062e-24
147                  6.657262432920e+00 3.027669724099e-04 2.688280381723e-24 3.237584795960e+00 2.308573761084e-05 0.000000000000e+00 3.419677636961e+00 2.796812347991e-04 2.688280381723e-24
148                  6.657249007740e+00 3.024904721119e-04 2.688296150162e-24 3.237579333320e+00 2.298527850544e-05 0.000000000000e+00 3.419669674420e+00 2.795051936065e-04 2.688296150162e-24
149                  6.657236383991e+00 3.022471256611e-04 2.688311016199e-24 3.237574196480e+00 2.289835021535e-05 0.000000000000e+00 3.419662187511e+00 2.793487754458e-04 2.688311016199e-24
150                  6.657224513628e+00 3.020338235674e-04 2.688325032247e-24 3.237569365934e+00 2.282358708841e-05 0.000000000000e+00 3.419655147694e+00 2.792102364790e-04 2.688325032247e-24
151                  6.657213351504e+00 3.018476931015e-04 2.688338247526e-24 3.237564823353e+00 2.275973411939e-05 0.000000000000e+00 3.419648528151e+00 2.790879589821e-04 2.688338247526e-24
152                  6.657202855192e+00 3.016860840154e-04 2.688350708272e-24 3.237560551507e+00 2.270563977827e-05 0.000000000000e+00 3.419642303685e+00 2.789804442372e-04 2.688350708272e-24
153                  6.657192984823e+00 3.015465548260e-04 2.688362457932e-24 3.237556534206e+00 2.266024915562e-05 0.000000000000e+00 3.419636450617e+00 2.788863056704e-04 2.688362457932e-24
154                  6.657183702929e+00 3.014268596947e-04 2.688373537355e-24 3.237552756230e+00 2.262259745509e-05 0.000000000000e+00 3.419630946699e+00 2.788042622396e-04 2.688373537355e-24