# Force             
# CofR              : (0.000000000000e+00 0.000000000000e+00 0.000000000000e+00)
#
# Time              	total_x total_y total_z	pressure_x pressure_y pressure_z	viscous_x viscous_y viscous_z
1                    -5.671372069260e+01 1.362664669015e+00 2.039846498751e+00 -5.654349348933e+01 1.373211588284e+00 2.039994946742e+00 -1.702272032679e-01 -1.054691926888e-02 -1.484479912210e-04
2                    -2.394764034832e+02 1.111182452717e+00 3.929267225648e+00 -2.392576863037e+02 1.126671014921e+00 3.928950710779e+00 -2.187171795499e-01 -1.548856220385e-02 3.165148686134e-04
3                    -5.792236130535e+01 2.005732933892e+00 -1.951048590299e+00 -5.796434645477e+01 2.021072038561e+00 -1.950883657733e+00 4.198514941818e-02 -1.533910466908e-02 -1.649325661688e-04
4                    1.118705398022e+02 -1.406576212599e-01 -2.755429999911e+00 1.116443865493e+02 -1.254621765680e-01 -2.756034913064e+00 2.261532528578e-01 -1.519544469196e-02 6.049131531155e-04
5                    2.573513436024e+02 -7.170775375080e+00 7.184596063442e-01 2.571774071312e+02 -7.162247626276e+00 7.169541782005e-01 1.739364712108e-01 -8.527748803418e-03 1.505428143759e-03
6                    1.179578041154e+02 -4.323661966314e+00 5.782424034289e+00 1.179121143193e+02 -4.323172613951e+00 5.780919929203e+00 4.568979606445e-02 -4.893523628948e-04 1.504105086331e-03
7                    -5.710122773484e+01 2.521205627819e+00 8.690566222669e+00 -5.702976568088e+01 2.513293149835e+00 8.689437608276e+00 -7.146205395832e-02 7.912477983775e-03 1.128614392649e-03
8                    -2.477558247214e+02 5.733321937824e+00 1.101629493229e+01 -2.476595012588e+02 5.731197295248e+00 1.101334576530e+01 -9.632346263305e-02 2.124642575925e-03 2.949166997822e-03
9                    -1.885240637394e+02 1.973320743691e+00 6.958034509232e+00 -1.884853247753e+02 1.974920834510e+00 6.952815080975e+00 -3.873896401445e-02 -1.600090818796e-03 5.219428257718e-03
10                   3.991865233892e+01 -1.278927788501e+00 -1.003371258145e+01 3.987350814197e+01 -1.276224341654e+00 -1.003463995623e+01 4.514419695269e-02 -2.703446847510e-03 9.273747805678e-04
11                   2.976622854023e+02 -2.128305515974e+00 -1.749403374089e+01 2.976037165376e+02 -2.126597535168e+00 -1.748752268167e+01 5.856886463176e-02 -1.707980805202e-03 -6.511059221220e-03
12                   2.536335077848e+02 -1.440776951506e+00 -8.628498409409e+00 2.535978448925e+02 -1.439942906885e+00 -8.619475903659e+00 3.566289227233e-02 -8.340446201010e-04 -9.022505750560e-03
13                   3.564008005831e+01 4.438931610041e-01 7.854578106364e+00 3.564629140001e+01 4.440385208616e-01 7.857702640974e+00 -6.211341703085e-03 -1.453598574558e-04 -3.124534610619e-03
14                   -7.902599584468e+01 1.932661217692e+00 1.186474677651e+01 -7.897875640433e+01 1.931963386939e+00 1.186047956779e+01 -4.723944034988e-02 6.978307523663e-04 4.267208716919e-03
15                   -1.495626530897e+02 2.673679197715e+00 2.628129599818e+00 -1.495167061687e+02 2.672105840930e+00 2.625609584745e+00 -4.594692091877e-02 1.573356785439e-03 2.520015073189e-03
16                   -5.841430237850e+01 7.363112830257e-01 -7.179536364730e+00 -5.840693951400e+01 7.359235926667e-01 -7.178359827154e+00 -7.362864508509e-03 3.876903589430e-04 -1.176537575632e-03
17                   5.697099165769e+01 -1.083713379995e+00 -1.093816060291e+01 5.692811658252e+01 -1.086537738385e+00 -1.093340671338e+01 4.287507516881e-02 2.824358390191e-03 -4.753889525443e-03
18                   1.282979992651e+02 -6.226344766815e-01 -5.720201996613e+00 1.282617092598e+02 -6.259105176547e-01 -5.715620330416e+00 3.629000538424e-02 3.276040973164e-03 -4.581666197036e-03
19                   7.718580425238e+01 2.804565134852e-01 1.427545301607e+00 7.717537944278e+01 2.760417194838e-01 1.429747738956e+00 1.042480960093e-02 4.414794001361e-03 -2.202437349224e-03
20                   -8.290498677256e+00 7.683345158951e-01 4.716918494387e+00 -8.280220538789e+00 7.631569894980e-01 4.716593922266e+00 -1.027813846718e-02 5.177526397043e-03 3.245721209420e-04
21                   -3.419433557885e+01 6.616630723342e-01 2.027782087791e+00 -3.417807735222e+01 6.572248716249e-01 2.028278895334e+00 -1.625822662882e-02 4.438200709378e-03 -4.968075436512e-04
22                   -2.890374924463e+01 6.049368475120e-01 -3.075151078756e+00 -2.889108060815e+01 6.018501736511e-01 -3.070543704815e+00 -1.266863647901e-02 3.086673860892e-03 -4.607373941018e-03
23                   2.230469394677e+00 3.521837671135e-01 -5.479339288172e+00 2.229656480882e+00 3.482096716627e-01 -5.473670421667e+00 8.129137945216e-04 3.974095450818e-03 -5.668866505335e-03
24                   2.504016462509e+01 2.014959466749e-01 -3.537554676942e+00 2.502908387732e+01 1.968136809013e-01 -3.533825479195e+00 1.108074777517e-02 4.682265773546e-03 -3.729197747324e-03
25                   1.940952965926e+01 4.307231712328e-01 -2.653600123539e-01 1.940026249906e+01 4.270564019671e-01 -2.637084851289e-01 9.267160196052e-03 3.666769265744e-03 -1.651527224952e-03
26                   1.199589040815e+00 6.368289395984e-01 1.055591997440e+00 1.197410586161e+00 6.336349403827e-01 1.056452151490e+00 2.178454654763e-03 3.193999215619e-03 -8.601540495619e-04
27                   -9.078614054433e+00 6.376926065823e-01 -1.679199957131e-01 -9.076478727862e+00 6.346030801140e-01 -1.668710422090e-01 -2.135326571458e-03 3.089526468360e-03 -1.048953504120e-03
28                   -6.900064804173e+00 5.847910221954e-01 -2.283607049099e+00 -6.899933246904e+00 5.818313996036e-01 -2.282323299571e+00 -1.315572685423e-04 2.959622591804e-03 -1.283749528590e-03
29                   1.078726063346e+00 5.589823246043e-01 -3.082165099960e+00 1.074092660550e+00 5.558117104801e-01 -3.081515427453e+00 4.633402795868e-03 3.170614124239e-03 -6.496725068730e-04
30                   5.643755055555e+00 4.107585954988e-01 -2.208864959102e+00 5.634764811422e+00 4.075320010178e-01 -2.209467613375e+00 8.990244132877e-03 3.226594481058e-03 6.026542731780e-04
31                   4.012757533634e+00 4.670870502198e-01 -1.058517401502e+00 4.005055363760e+00 4.638916876135e-01 -1.059808322933e+00 7.702169874230e-03 3.195362606289e-03 1.290921430982e-03
32                   -1.406018761406e-01 5.034366797784e-01 -6.197459430481e-01 -1.450720530570e-01 5.001154761122e-01 -6.202472847663e-01 4.470176916448e-03 3.321203666194e-03 5.013417181943e-04
33                   -2.094194781733e+00 4.835100581636e-01 -1.006963672388e+00 -2.098701336165e+00 4.797600826266e-01 -1.006124440053e+00 4.506554431855e-03 3.749975537010e-03 -8.392323353659e-04
34                   -5.297846486353e-01 4.679464795148e-01 -1.559872362786e+00 -5.367253526821e-01 4.639905320708e-01 -1.558953197354e+00 6.940704046760e-03 3.955947443956e-03 -9.191654316419e-04
35                   1.467081299863e+00 5.100929630673e-01 -1.719841661353e+00 1.458730467929e+00 5.061546791793e-01 -1.720173995628e+00 8.350831934828e-03 3.938283887990e-03 3.323342746477e-04
36                   1.871529798976e+00 5.500217673778e-01 -1.475483824498e+00 1.863781534910e+00 5.462256913676e-01 -1.476705710800e+00 7.748264065782e-03 3.796076010261e-03 1.221886302004e-03
37                   8.085299258310e-01 5.531431174209e-01 -1.111738442587e+00 8.016942445423e-01 5.495639920753e-01 -1.112758664126e+00 6.835681288744e-03 3.579125345592e-03 1.020221539609e-03
38                   -2.861302266851e-01 5.520722408746e-01 -9.327502956700e-01 -2.923027230716e-01 5.485642078627e-01 -9.327284334729e-01 6.172496386464e-03 3.508033011909e-03 -2.186219706716e-05
39                   -3.912802643698e-01 5.554548714441e-01 -9.827241116665e-01 -3.980636987290e-01 5.518538731764e-01 -9.821804917559e-01 6.783434359255e-03 3.600998267758e-03 -5.436199106173e-04
40                   2.591918922334e-01 5.682693502578e-01 -1.085547433144e+00 2.513907493992e-01 5.645689963733e-01 -1.085714483853e+00 7.801142834234e-03 3.700353884500e-03 1.670507089925e-04
41                   7.541545525769e-01 5.930047469079e-01 -1.074274648246e+00 7.463201435221e-01 5.892910786250e-01 -1.075467329754e+00 7.834409054770e-03 3.713668282975e-03 1.192681507867e-03
42                   6.412211463347e-01 6.082822169983e-01 -9.349431625549e-01 6.342784228132e-01 6.046472832224e-01 -9.361772031570e-01 6.942723521495e-03 3.634933775974e-03 1.234040602094e-03
43                   2.288493040952e-01 6.005428934109e-01 -7.240100632861e-01 2.226503191855e-01 5.970659274725e-01 -7.243860974588e-01 6.198984909625e-03 3.476965938441e-03 3.760341727222e-04
44                   -3.212850859730e-02 5.911713458663e-01 -5.375937905864e-01 -3.849937286633e-02 5.878684136970e-01 -5.373369929842e-01 6.370864269023e-03 3.302932169244e-03 -2.567976022671e-04
45                   4.535133012892e-02 6.042982791362e-01 -4.211247392475e-01 3.833678182405e-02 6.010830169313e-01 -4.211158696168e-01 7.014548304869e-03 3.215262204883e-03 -8.869630687183e-06
46                   2.788820597156e-01 6.259051855620e-01 -3.626960812356e-01 2.710522915153e-01 6.226600423764e-01 -3.633615201513e-01 7.829768200270e-03 3.245143185675e-03 6.654389156776e-04
47                   4.259900611119e-01 6.361101178753e-01 -3.441457235085e-01 4.177460962318e-01 6.328374751515e-01 -3.451270624887e-01 8.243964880080e-03 3.272642723797e-03 9.813389802031e-04
48                   4.128106340088e-01 6.290323210645e-01 -3.290119643923e-01 4.045887834766e-01 6.257904871607e-01 -3.297636418906e-01 8.221850532158e-03 3.241833903793e-03 7.516774982782e-04
49                   3.230733214232e-01 6.114839447311e-01 -2.796714552641e-01 3.149356330401e-01 6.083094453278e-01 -2.800148264286e-01 8.137688383008e-03 3.174499403285e-03 3.433711645950e-04
50                   2.777800005744e-01 5.942737973887e-01 -1.812215185320e-01 2.694992854208e-01 5.911524839118e-01 -1.814616215936e-01 8.280715153628e-03 3.121313476911e-03 2.401030615790e-04
51                   3.110083564457e-01 5.858359534847e-01 -6.959603952703e-02 3.023071479221e-01 5.827187356888e-01 -7.008820333857e-02 8.701208523604e-03 3.117217795877e-03 4.921638115393e-04
52                   3.690435459854e-01 5.874591404251e-01 -2.193604374927e-03 3.598325935835e-01 5.843026011276e-01 -2.949573197062e-03 9.210952401964e-03 3.156539297552e-03 7.559688221349e-04
53                   3.953290334835e-01 5.920166666432e-01 3.455337299827e-03 3.857531210680e-01 5.888191526811e-01 2.681162492408e-03 9.575912415473e-03 3.197513962111e-03 7.741748074191e-04
54                   3.811743359454e-01 5.920202063191e-01 -1.476642254594e-02 3.713889066636e-01 5.888138414617e-01 -1.539611137118e-02 9.785429281843e-03 3.206364857446e-03 6.296888252456e-04
55                   3.553116292871e-01 5.870831564225e-01 -1.514327323094e-02 3.453407987261e-01 5.839137474527e-01 -1.566708724632e-02 9.970830560944e-03 3.169408969770e-03 5.238140153775e-04
56                   3.451056256418e-01 5.797678945414e-01 1.345301932570e-02 3.348552304823e-01 5.766601278120e-01 1.288130943708e-02 1.025039515947e-02 3.107766729410e-03 5.717098886292e-04
57                   3.515104310627e-01 5.714858231848e-01 4.465877439528e-02 3.408769086353e-01 5.684337582890e-01 4.396439253634e-02 1.063352242745e-02 3.052064895779e-03 6.943818589394e-04
58                   3.581337714979e-01 5.608063346785e-01 4.661417082893e-02 3.470925238894e-01 5.577969970628e-01 4.586632099566e-02 1.104124760853e-02 3.009337615675e-03 7.478498332721e-04
59                   3.531212564764e-01 5.475443554304e-01 1.928014912660e-02 3.417320824110e-01 5.445763113431e-01 1.858967103118e-02 1.138917406543e-02 2.968044087276e-03 6.904780954263e-04
60                   3.394987840950e-01 5.311124983292e-01 -1.450012023016e-02 3.278117102656e-01 5.281921550789e-01 -1.507605047248e-02 1.168707382939e-02 2.920343250281e-03 5.759302423167e-04
61                   3.278932375819e-01 5.112568550980e-01 -3.295615223508e-02 3.158977103321e-01 5.083868459473e-01 -3.344104479918e-02 1.199552724979e-02 2.870009150642e-03 4.848925641091e-04
62                   3.239822453879e-01 4.896617213570e-01 -3.517705454609e-02 3.116261691009e-01 4.868408458346e-01 -3.564386649227e-02 1.235607628699e-02 2.820875522366e-03 4.668119461725e-04
63                   3.250739268242e-01 4.658980181612e-01 -3.538191564950e-02 3.123105276604e-01 4.631214011614e-01 -3.586462075572e-02 1.276339916382e-02 2.776616999758e-03 4.827051062181e-04
64                   3.254244075234e-01 4.394414976119e-01 -4.691079819193e-02 3.122368862586e-01 4.367022854616e-01 -4.738181617221e-02 1.318752126476e-02 2.739212150271e-03 4.710179802819e-04
65                   3.222975620181e-01 4.125245405109e-01 -7.055194395041e-02 3.086922596188e-01 4.098207442087e-01 -7.097258518987e-02 1.360530239934e-02 2.703796302188e-03 4.206412394637e-04
66                   3.170261631708e-01 3.880053655068e-01 -9.578409664071e-02 3.030112463282e-01 3.853417412322e-01 -9.614615107821e-02 1.401491684260e-02 2.663624274632e-03 3.620544375017e-04
67                   3.122378029451e-01 3.675292242497e-01 -1.137890977359e-01 2.978136298486e-01 3.649132847122e-01 -1.141118338264e-01 1.442417309645e-02 2.615939537569e-03 3.227360904381e-04
68                   3.090513808150e-01 3.491874179480e-01 -1.218908642866e-01 2.942146390079e-01 3.466247986668e-01 -1.221949771074e-01 1.483674180704e-02 2.562619281182e-03 3.041128207671e-04
69                   3.066974939953e-01 3.312434786773e-01 -1.253976368547e-01 2.914500076428e-01 3.287384724992e-01 -1.256869740447e-01 1.524748635254e-02 2.505006178104e-03 2.893371900111e-04
70                   3.041065510290e-01 3.130854935377e-01 -1.297828483652e-01 2.884584316928e-01 3.106411441435e-01 -1.300459735367e-01 1.564811933613e-02 2.444349394168e-03 2.631251715339e-04
71                   3.013487833125e-01 2.956125547595e-01 -1.353037969922e-01 2.853161572484e-01 2.932300614650e-01 -1.355291371693e-01 1.603262606410e-02 2.382493294459e-03 2.253401771060e-04
72                   2.992818966625e-01 2.802938034893e-01 -1.388080352630e-01 2.828822453522e-01 2.779720928707e-01 -1.389955738857e-01 1.639965131027e-02 2.321710618566e-03 1.875386226866e-04
73                   2.985728332284e-01 2.678157510883e-01 -1.384046848287e-01 2.818234110616e-01 2.655516116409e-01 -1.385656433139e-01 1.674942216684e-02 2.264139447348e-03 1.609584852201e-04
74                   2.989856516140e-01 2.575771642019e-01 -1.345318924903e-01 2.819040274448e-01 2.553669489657e-01 -1.346801636036e-01 1.708162416921e-02 2.210215236135e-03 1.482711132462e-04
75                   2.996029584540e-01 2.483633104936e-01 -1.284582178546e-01 2.822069517924e-01 2.462044830973e-01 -1.286034038280e-01 1.739600666163e-02 2.158827396275e-03 1.451859734029e-04
76                   2.993893592945e-01 2.392047046026e-01 -1.202076848018e-01 2.816975488329e-01 2.370966454066e-01 -1.203553085177e-01 1.769181046153e-02 2.108059196050e-03 1.476237158802e-04
77                   2.979462539087e-01 2.297511413868e-01 -1.087439174712e-01 2.799791380046e-01 2.276945719265e-01 -1.088993722720e-01 1.796711590412e-02 2.056569460382e-03 1.554548007601e-04
78                   2.955132932035e-01 2.205074325069e-01 -9.378097261862e-02 2.772941681731e-01 2.185033118120e-01 -9.395253727820e-02 1.821912503045e-02 2.004120694911e-03 1.715646595763e-04
79                   2.924849668521e-01 2.118091747295e-01 -7.650902348266e-02 2.740406855325e-01 2.098568000228e-01 -7.670598103829e-02 1.844428131959e-02 1.952374706725e-03 1.969575556311e-04
80                   2.890575705292e-01 2.035818900302e-01 -5.964821578778e-02 2.704191566042e-01 2.016790922247e-01 -5.987823397639e-02 1.863841392501e-02 1.902797805477e-03 2.300181886096e-04
81                   2.852001175471e-01 1.956908496904e-01 -4.650132966782e-02 2.663996061347e-01 1.938346740916e-01 -4.676851291451e-02 1.880051141244e-02 1.856175598882e-03 2.671832466907e-04
82                   2.807830902272e-01 1.884126483578e-01 -3.937290651102e-02 2.618532626275e-01 1.865994433318e-01 -3.967922028997e-02 1.892982759972e-02 1.813205025967e-03 3.063137789459e-04
83                   2.759863175199e-01 1.824658312224e-01 -3.878730337878e-02 2.569580468377e-01 1.806906743829e-01 -3.913344348472e-02 1.902827068227e-02 1.775156839459e-03 3.461401059441e-04
84                   2.712821491323e-01 1.785046754195e-01 -4.360830719869e-02 2.521843244723e-01 1.767614231416e-01 -4.399301136663e-02 1.909782466009e-02 1.743252277829e-03 3.847041679431e-04
85                   2.670024496794e-01 1.765675063659e-01 -5.208139719415e-02 2.478602438658e-01 1.748500477951e-01 -5.250061645380e-02 1.914220581358e-02 1.717458570863e-03 4.192192596496e-04
86                   2.630819550031e-01 1.757420296039e-01 -6.275963637775e-02 2.439163625427e-01 1.740451491978e-01 -6.320604119879e-02 1.916559246041e-02 1.696880406152e-03 4.464048210384e-04
87                   2.592631537167e-01 1.749198323167e-01 -7.459680533374e-02 2.400908756494e-01 1.732393836055e-01 -7.506097305902e-02 1.917227806728e-02 1.680448711227e-03 4.641677252814e-04
88                   2.555756360900e-01 1.736607805414e-01 -8.702059302426e-02 2.364088489736e-01 1.719925716370e-01 -8.749258030177e-02 1.916678711635e-02 1.668208904403e-03 4.719872775141e-04
89                   2.521993317364e-01 1.721794458404e-01 -9.961363437735e-02 2.330470154433e-01 1.705184873972e-01 -1.000846896169e-01 1.915231629302e-02 1.660958443239e-03 4.710552395958e-04
90                   2.490903697964e-01 1.708393072842e-01 -1.119522022799e-01 2.299595154711e-01 1.691799313342e-01 -1.124156663873e-01 1.913085432530e-02 1.659375950022e-03 4.634641073225e-04
91                   2.458470093307e-01 1.698356163891e-01 -1.235177356560e-01 2.267445774995e-01 1.681721588646e-01 -1.239679084076e-01 1.910243183120e-02 1.663457524513e-03 4.501727516583e-04
92                   2.420541014713e-01 1.691499942819e-01 -1.340530109240e-01 2.229846728957e-01 1.674782902561e-01 -1.344847444497e-01 1.906942857562e-02 1.671704025745e-03 4.317335256324e-04
93                   2.376514522376e-01 1.687105962475e-01 -1.433868063401e-01 2.186183799491e-01 1.670287709695e-01 -1.437952223907e-01 1.903307228847e-02 1.681825277979e-03 4.084160506460e-04
94                   2.330253063545e-01 1.685602133302e-01 -1.515277671281e-01 2.140304284607e-01 1.668681455526e-01 -1.519084800111e-01 1.899487789382e-02 1.692067777665e-03 3.807128830276e-04
95                   2.287647400987e-01 1.688052898771e-01 -1.585819253467e-01 2.098085699839e-01 1.671041605384e-01 -1.589317492619e-01 1.895617011480e-02 1.701129338672e-03 3.498239151914e-04
96                   2.252223224141e-01 1.695171497977e-01 -1.646930174421e-01 2.063039381709e-01 1.678078751170e-01 -1.650098899944e-01 1.891838424326e-02 1.709274680773e-03 3.168725523261e-04
97                   2.222930368634e-01 1.706601569647e-01 -1.699323167375e-01 2.034113159161e-01 1.689428595928e-01 -1.702159492641e-01 1.888172094723e-02 1.717297371881e-03 2.836325265429e-04
98                   2.195609325524e-01 1.721220499848e-01 -1.742271423564e-01 2.007142698834e-01 1.703966567149e-01 -1.744774514369e-01 1.884666266895e-02 1.725393269899e-03 2.503090805210e-04
99                   2.167538891725e-01 1.738224444809e-01 -1.774605608299e-01 1.979404368166e-01 1.720886558921e-01 -1.776780421134e-01 1.881345235594e-02 1.733788588791e-03 2.174812835131e-04
100                  2.140203738366e-01 1.757151513072e-01 -1.796215955337e-01 1.952382373615e-01 1.739718299818e-01 -1.798071985053e-01 1.878213647504e-02 1.743321325435e-03 1.856029716458e-04
101                  2.116737867907e-01 1.777473492509e-01 -1.807349000091e-01 1.929203408339e-01 1.759932103862e-01 -1.808909701351e-01 1.875344595682e-02 1.754138864639e-03 1.560701259295e-04
102                  2.099078189989e-01 1.798378504096e-01 -1.809122120591e-01 1.911801755098e-01 1.780713308159e-01 -1.810422146006e-01 1.872764348903e-02 1.766519593740e-03 1.300025414656e-04
103                  2.085781580345e-01 1.818600415405e-01 -1.802579985364e-01 1.898745099081e-01 1.800798454486e-01 -1.803661582479e-01 1.870364812641e-02 1.780196091904e-03 1.081597114678e-04
104                  2.073365352022e-01 1.836884268888e-01 -1.788654788487e-01 1.886564455551e-01 1.818937155935e-01 -1.789561621091e-01 1.868008964714e-02 1.794711295225e-03 9.068326038242e-05
105                  2.059790202983e-01 1.852353117535e-01 -1.769365761372e-01 1.873229030102e-01 1.834256767342e-01 -1.770140426181e-01 1.865611728809e-02 1.809635019289e-03 7.746648091158e-05
106                  2.045649008929e-01 1.864938689546e-01 -1.747466438235e-01 1.859320828592e-01 1.846692940218e-01 -1.748154483442e-01 1.863281803379e-02 1.824574932785e-03 6.880452068666e-05
107                  2.032623612021e-01 1.874950491059e-01 -1.725390006895e-01 1.846527555378e-01 1.856558506459e-01 -1.726038191528e-01 1.860960566424e-02 1.839198460031e-03 6.481846333560e-05
108                  2.021974222570e-01 1.883094696752e-01 -1.704972111813e-01 1.836103028706e-01 1.864560194325e-01 -1.705626579593e-01 1.858711938641e-02 1.853450242681e-03 6.544677793166e-05
109                  2.013981149883e-01 1.890415436612e-01 -1.687790280470e-01 1.828333470689e-01 1.871740457565e-01 -1.688495125544e-01 1.856476791944e-02 1.867497904713e-03 7.048450740052e-05
110                  2.008274031537e-01 1.897694446141e-01 -1.675838207833e-01 1.822849370837e-01 1.878885137198e-01 -1.676628832400e-01 1.854246607005e-02 1.880930894278e-03 7.906245671552e-05
111                  2.004563687966e-01 1.905396803181e-01 -1.671401585350e-01 1.819361166402e-01 1.886459767500e-01 -1.672302442377e-01 1.852025215640e-02 1.893703568132e-03 9.008570276582e-05
112                  2.003157254195e-01 1.913643372028e-01 -1.676627916467e-01 1.818172683103e-01 1.894582641844e-01 -1.677653582560e-01 1.849845710921e-02 1.906073018453e-03 1.025666093039e-04
113                  2.004465585176e-01 1.922519494502e-01 -1.692796314414e-01 1.819697483726e-01 1.903337326662e-01 -1.693951206578e-01 1.847681014496e-02 1.918216784038e-03 1.154892164536e-04
114                  2.008314609707e-01 1.931819831873e-01 -1.719921463124e-01 1.823756563344e-01 1.912519909680e-01 -1.721196055168e-01 1.845580463631e-02 1.929992219325e-03 1.274592044109e-04
115                  2.014008141018e-01 1.941008390520e-01 -1.756702902937e-01 1.829659094040e-01 1.921596951982e-01 -1.758077983589e-01 1.843490469783e-02 1.941143853781e-03 1.375080651880e-04
116                  2.020512191341e-01 1.949264778818e-01 -1.800297038553e-01 1.836364324222e-01 1.929749755414e-01 -1.801745099558e-01 1.841478671190e-02 1.951502340437e-03 1.448061005366e-04
117                  2.027256151023e-01 1.956125797779e-01 -1.847507325431e-01 1.843291522658e-01 1.936515360038e-01 -1.848994704052e-01 1.839646283653e-02 1.961043774118e-03 1.487378621282e-04
118                  2.033925771765e-01 1.961506338812e-01 -1.895464939545e-01 1.850126230284e-01 1.941808130317e-01 -1.896953886548e-01 1.837995414804e-02 1.969820849556e-03 1.488947002963e-04
119                  2.040699236388e-01 1.965508591920e-01 -1.941556326297e-01 1.857055520445e-01 1.945731786423e-01 -1.943009466346e-01 1.836437159423e-02 1.977680549676e-03 1.453140049077e-04
120                  2.047877683624e-01 1.968066164441e-01 -1.983422527743e-01 1.864373515885e-01 1.948224129725e-01 -1.984804524107e-01 1.835041677386e-02 1.984203471547e-03 1.381996363361e-04
121                  2.055420191070e-01 1.968946111240e-01 -2.019140784163e-01 1.872035967724e-01 1.949052997915e-01 -2.020418360282e-01 1.833842233462e-02 1.989311332497e-03 1.277576118364e-04
122                  2.062981366271e-01 1.967851250080e-01 -2.047294206478e-01 1.879704267877e-01 1.947925839153e-01 -2.048441447828e-01 1.832770983949e-02 1.992541092667e-03 1.147241350379e-04
123                  2.070035403547e-01 1.964895613407e-01 -2.066995890954e-01 1.886859112869e-01 1.944957184644e-01 -2.067997947248e-01 1.831762906779e-02 1.993842876313e-03 1.002056294845e-04
124                  2.076006211751e-01 1.960662495868e-01 -2.077740613984e-01 1.892929030316e-01 1.940725388239e-01 -2.078588769110e-01 1.830771814348e-02 1.993710762933e-03 8.481551259589e-05
125                  2.080631354272e-01 1.955742204686e-01 -2.079410426275e-01 1.897652416220e-01 1.935818594029e-01 -2.080103780226e-01 1.829789380517e-02 1.992361065718e-03 6.933539509307e-05
126                  2.084100129259e-01 1.950642580590e-01 -2.072405930892e-01 1.901222002057e-01 1.930740668530e-01 -2.072949469711e-01 1.828781272014e-02 1.990191206016e-03 5.435388186856e-05
127                  2.086803662548e-01 1.945816098288e-01 -2.057542182816e-01 1.904034603804e-01 1.925948230280e-01 -2.057950293793e-01 1.827690587440e-02 1.986786800822e-03 4.081109764331e-05
128                  2.089217493176e-01 1.941559694665e-01 -2.036057358544e-01 1.906568095856e-01 1.921733044139e-01 -2.036347255690e-01 1.826493973207e-02 1.982665052676e-03 2.898971450699e-05
129                  2.091685400232e-01 1.938125197082e-01 -2.009704340862e-01 1.909163040094e-01 1.918345364410e-01 -2.009896038892e-01 1.825223601383e-02 1.977983267174e-03 1.916980296182e-05
130                  2.094189010717e-01 1.935598736791e-01 -1.980392233200e-01 1.911793602415e-01 1.915868032636e-01 -1.980504411691e-01 1.823954083020e-02 1.973070415506e-03 1.121784907613e-05
131                  2.096607317914e-01 1.933849551985e-01 -1.949972855903e-01 1.914338941024e-01 1.914169338988e-01 -1.950023408516e-01 1.822683768903e-02 1.968021299676e-03 5.055261335983e-06
132                  2.098802193484e-01 1.932991752206e-01 -1.920214982661e-01 1.916649067011e-01 1.913360571134e-01 -1.920227483275e-01 1.821531264729e-02 1.963118107236e-03 1.250061391076e-06
133                  2.100966489719e-01 1.932735689539e-01 -1.892677895411e-01 1.918929429266e-01 1.913151956073e-01 -1.892680230466e-01 1.820370604526e-02 1.958373346584e-03 2.335054742145e-07
134                  2.103251572995e-01 1.932912203406e-01 -1.868818614276e-01 1.921335465057e-01 1.913374723442e-01 -1.868831199366e-01 1.819161079380e-02 1.953747996463e-03 1.258508955205e-06
135                  2.105867025619e-01 1.932742241279e-01 -1.849964717449e-01 1.924088614305e-01 1.913249750111e-01 -1.850000514965e-01 1.817784113138e-02 1.949249116803e-03 3.579751594433e-06
136                  2.109007947987e-01 1.932294664173e-01 -1.836834251521e-01 1.927378068624e-01 1.912845068747e-01 -1.836903677475e-01 1.816298793637e-02 1.944959542600e-03 6.942595469874e-06
137                  2.112802018047e-01 1.931952438367e-01 -1.829537826901e-01 1.931328546357e-01 1.912540159986e-01 -1.829646686206e-01 1.814734716900e-02 1.941227838081e-03 1.088593052081e-05
138                  2.117482227700e-01 1.931887443016e-01 -1.828181431844e-01 1.936162640536e-01 1.912507821781e-01 -1.828330781564e-01 1.813195871638e-02 1.937962123513e-03 1.493497198315e-05
139                  2.123247174464e-01 1.931501341483e-01 -1.832788213034e-01 1.942072055856e-01 1.912155213369e-01 -1.832975269059e-01 1.811751186083e-02 1.934612811363e-03 1.870560246763e-05
140                  2.129783719060e-01 1.931257242426e-01 -1.843393177270e-01 1.948748671376e-01 1.911946296480e-01 -1.843607379280e-01 1.810350476846e-02 1.931094594616e-03 2.142020101027e-05
141                  2.136893329125e-01 1.931224455547e-01 -1.859315504526e-01 1.955981000397e-01 1.911946364530e-01 -1.859543679486e-01 1.809123287281e-02 1.927809101767e-03 2.281749603678e-05
142                  2.144333263402e-01 1.931616949705e-01 -1.879750144145e-01 1.963525732544e-01 1.912365771186e-01 -1.879973396203e-01 1.808075308587e-02 1.925117851817e-03 2.232520581190e-05
143                  2.151817070439e-01 1.932296105172e-01 -1.903535993425e-01 1.971114942698e-01 1.913065154170e-01 -1.903737585838e-01 1.807021277404e-02 1.923095100233e-03 2.015924129138e-05
144                  2.159055849510e-01 1.932949882099e-01 -1.929469709471e-01 1.978455161476e-01 1.913734950825e-01 -1.929631040036e-01 1.806006880346e-02 1.921493127388e-03 1.613305649048e-05
145                  2.165849685164e-01 1.933456999225e-01 -1.956448341010e-01 1.985347398191e-01 1.914258087033e-01 -1.956550966509e-01 1.805022869731e-02 1.919891219259e-03 1.026254986403e-05
146                  2.172152117076e-01 1.933908040289e-01 -1.983309944068e-01 1.991754107860e-01 1.914726368187e-01 -1.983332592173e-01 1.803980092161e-02 1.918167210160e-03 2.264810469630e-06
147                  2.177837778496e-01 1.934529923621e-01 -2.008648047365e-01 1.997553725241e-01 1.915368068723e-01 -2.008568855071e-01 1.802840532549e-02 1.916185489820e-03 -7.919229420047e-06
148                  2.183024221178e-01 1.935217296384e-01 -2.030918728046e-01 2.002864754298e-01 1.916074455761e-01 -2.030719510128e-01 1.801594668801e-02 1.914284062351e-03 -1.992179176685e-05
149                  2.187577332208e-01 1.935951339626e-01 -2.048717987686e-01 2.007559222185e-01 1.916824490608e-01 -2.048386989083e-01 1.800181100221e-02 1.912684901759e-03 -3.309986030847e-05
150                  2.191560843984e-01 1.937427258139e-01 -2.061238406837e-01 2.011687930403e-01 1.918313063269e-01 -2.060768550133e-01 1.798729135815e-02 1.911419487015e-03 -4.698567037591e-05
151                  2.194872980284e-01 1.939893769351e-01 -2.068152582505e-01 2.015152316792e-01 1.920786804654e-01 -2.067541859134e-01 1.797206634922e-02 1.910696469691e-03 -6.107233706835e-05
152                  2.197511824514e-01 1.943373763548e-01 -2.069356926677e-01 2.017943314272e-01 1.924268772603e-01 -2.068605394810e-01 1.795685102424e-02 1.910499094539e-03 -7.515318673274e-05
153                  2.199517481784e-01 1.947525513899e-01 -2.064815839644e-01 2.020110632575e-01 1.928416700159e-01 -2.063928111026e-01 1.794068492093e-02 1.910881374026e-03 -8.877286182596e-05