# Moment            
# CofR              : (0.000000000000e+00 0.000000000000e+00 0.000000000000e+00)
#
# Time              	total_x total_y total_z	pressure_x pressure_y pressure_z	viscous_x viscous_y viscous_z
1                    -9.835475359478e-01 -4.255774425103e+01 3.725495354815e+00 -9.906310026341e-01 -4.244413449390e+01 3.747579344396e+00 7.083466686339e-03 -1.136097571284e-01 -2.208398958157e-02
2                    -8.145467996555e-01 -1.725503641523e+02 1.016922204215e+01 -8.249158048107e-01 -1.724033353622e+02 1.020616092460e+01 1.036900515518e-02 -1.470287900864e-01 -3.693888244791e-02
3                    -1.410714969619e+00 -3.411901962637e+01 1.609719305631e+01 -1.420881032420e+00 -3.414990054817e+01 1.614401201030e+01 1.016606280137e-02 3.088092180604e-02 -4.681895398860e-02
4                    1.688812543384e-02 8.262553776339e+01 3.962066958989e+00 6.755707506974e-03 8.247328624086e+01 4.019665347904e+00 1.013241792686e-02 1.522515225219e-01 -5.759838891432e-02
5                    4.729287720050e+00 1.688520976476e+02 -2.150041888194e+01 4.723348952054e+00 1.687385583534e+02 -2.146890110460e+01 5.938767995777e-03 1.135392942022e-01 -3.151777733569e-02
6                    2.898836268882e+00 6.078983598937e+01 -1.835722845063e+01 2.898391983332e+00 6.076191105554e+01 -1.835283265712e+01 4.442855496643e-04 2.792493383456e-02 -4.395793509509e-03
7                    -1.719126765488e+00 -6.522378078498e+01 -1.474000988165e+00 -1.713790536772e+00 -6.517417667070e+01 -1.500524787991e+00 -5.336228715236e-03 -4.960411427718e-02 2.652379982573e-02
8                    -3.651261662388e+00 -1.952326583643e+02 -1.226138914223e+00 -3.649365104734e+00 -1.951620778044e+02 -1.231482509406e+00 -1.896557654640e-03 -7.058055991382e-02 5.343595182883e-03
9                    -1.209705604837e+00 -1.408512914481e+02 -4.973378082558e+00 -1.210586780085e+00 -1.408137820908e+02 -4.968981919316e+00 8.811752484620e-04 -3.750935735561e-02 -4.396163241727e-03
10                   1.378699670029e+00 6.325493328326e+01 1.957708473671e+00 1.376202184062e+00 6.322059078349e+01 1.962144261768e+00 2.497485967759e-03 3.434249976971e-02 -4.435788097004e-03
11                   1.869764671519e+00 2.591055753272e+02 2.549514572165e+01 1.867478924509e+00 2.590394131505e+02 2.549924087715e+01 2.285747009780e-03 6.616217668177e-02 -4.095155493944e-03
12                   1.113983781880e+00 1.980756938924e+02 2.169149441520e+01 1.112956192934e+00 1.980188993554e+02 2.169709366559e+01 1.027588946939e-03 5.679453700632e-02 -5.599250389992e-03
13                   -9.242703363969e-01 2.794966090661e-01 3.554687621458e+00 -9.235566030636e-01 2.703358435384e-01 3.561761664103e+00 -7.137333333214e-04 9.160765527691e-03 -7.074042644690e-03
14                   -1.973600840138e+00 -8.808644313720e+01 -5.883307422733e+00 -1.971154292085e+00 -8.804305496740e+01 -5.876255697290e+00 -2.446548052491e-03 -4.338816979908e-02 -7.051725443942e-03
15                   -1.962972069883e+00 -1.048630300193e+02 -1.346131989279e+01 -1.960587431943e+00 -1.048268594524e+02 -1.345853101659e+01 -2.384637939878e-03 -3.617056690204e-02 -2.788876192456e-03
16                   -3.640822539124e-01 -1.441137511728e+01 -6.710052273948e+00 -3.625752555329e-01 -1.441440045505e+01 -6.709875906642e+00 -1.506998379519e-03 3.025337768111e-03 -1.763673064777e-04
17                   4.724115284063e-01 7.035036402760e+01 1.733913816245e+00 4.753821919931e-01 7.030280121235e+01 1.721769915013e+00 -2.970663586850e-03 4.756281524993e-02 1.214390123216e-02
18                   -5.180036813326e-01 1.001783702150e+02 1.435164512648e+01 -5.143835178997e-01 1.001351765430e+02 1.434302592664e+01 -3.620163432923e-03 4.319367205690e-02 8.619199837969e-03
19                   -1.506229459778e+00 4.582273314452e+01 1.035105073872e+01 -1.501665791471e+00 4.580262753569e+01 1.034245364951e+01 -4.563668307156e-03 2.010560883597e-02 8.597089207130e-03
20                   -1.609688861834e+00 -1.822290985506e+01 1.041832115614e+00 -1.604905209971e+00 -1.822164433637e+01 1.032674320166e+00 -4.783651863497e-03 -1.265518685735e-03 9.157795447953e-03
21                   -8.824446687734e-01 -2.666886596371e+01 -3.472063857220e+00 -8.786830868428e-01 -2.666577093307e+01 -3.478439642692e+00 -3.761581930600e-03 -3.095030641950e-03 6.375785471594e-03
22                   -4.735025640072e-01 -8.757383334687e+00 -3.718510106521e+00 -4.714478111046e-01 -8.769820491718e+00 -3.720240192119e+00 -2.054752902564e-03 1.243715703092e-02 1.730085598429e-03
23                   -5.093862748857e-01 1.780646099196e+01 -8.613077541328e-01 -5.065216940465e-01 1.778222721181e+01 -8.684402662877e-01 -2.864580839202e-03 2.423378014937e-02 7.132512154977e-03
24                   -8.855128124350e-01 2.641284258997e+01 2.406515911823e+00 -8.814726644754e-01 2.638800038616e+01 2.394654805158e+00 -4.040147959672e-03 2.484220381096e-02 1.186110666549e-02
25                   -1.210889283261e+00 1.298721635726e+01 3.491017697016e+00 -1.206852303863e+00 1.296982421629e+01 3.482572068421e+00 -4.036979398325e-03 1.739214097085e-02 8.445628594789e-03
26                   -1.067958966297e+00 -2.962275476762e+00 2.142317294286e+00 -1.064000481969e+00 -2.972682152376e+00 2.136987680494e+00 -3.958484327551e-03 1.040667561373e-02 5.329613791958e-03
27                   -7.081433014782e-01 -6.077046481826e+00 4.324244996824e-01 -7.043276402777e-01 -6.084375835659e+00 4.293274835132e-01 -3.815661200519e-03 7.329353832967e-03 3.097016169222e-03
28                   -6.098331903810e-01 1.623054916763e+00 -2.739467735297e-01 -6.063086985574e-01 1.614230877616e+00 -2.757472579468e-01 -3.524491823607e-03 8.824039146833e-03 1.800484417060e-03
29                   -8.506510684291e-01 9.155990821017e+00 3.187783137046e-01 -8.468073706355e-01 9.145482567410e+00 3.158268793351e-01 -3.843697793614e-03 1.050825360708e-02 2.951434369465e-03
30                   -9.930584680163e-01 9.353019402877e+00 8.382536121918e-01 -9.887854910533e-01 9.342396317554e+00 8.330551384063e-01 -4.272976962990e-03 1.062308532301e-02 5.198473785486e-03
31                   -1.009588094063e+00 4.469018204332e+00 1.363383626042e+00 -1.005296262402e+00 4.461538568303e+00 1.357622593956e+00 -4.291831661152e-03 7.479636028665e-03 5.761032085461e-03
32                   -8.243077664274e-01 1.509720962471e-01 1.266178020751e+00 -8.203623016960e-01 1.442365835512e-01 1.260782467568e+00 -3.945464731444e-03 6.735512695884e-03 5.395553183570e-03
33                   -6.230914700605e-01 -3.495032309649e-02 7.489514914606e-01 -6.193520010842e-01 -4.523258216946e-02 7.427976650456e-01 -3.739468976289e-03 1.028225907297e-02 6.153826414963e-03
34                   -5.665259891065e-01 2.759616736548e+00 5.252160473226e-01 -5.627832102544e-01 2.747135165602e+00 5.185211103527e-01 -3.742778852064e-03 1.248157094591e-02 6.694936969905e-03
35                   -6.586264450371e-01 4.519146504823e+00 7.065867266614e-01 -6.546894922095e-01 4.508844188691e+00 6.996447252448e-01 -3.936952827648e-03 1.030231613176e-02 6.942001416636e-03
36                   -7.322757547856e-01 3.835669545609e+00 1.023262081144e+00 -7.282985976066e-01 3.828368667378e+00 1.016268096376e+00 -3.977157179003e-03 7.300878231318e-03 6.993984768310e-03
37                   -7.186186782970e-01 1.854704220420e+00 1.179654224426e+00 -7.148766257685e-01 1.848154271403e+00 1.172952014207e+00 -3.742052528550e-03 6.549949017217e-03 6.702210218564e-03
38                   -6.715887276518e-01 6.453403460589e-01 1.143033816572e+00 -6.682443945650e-01 6.372372290386e-01 1.136836080712e+00 -3.344333086759e-03 8.103117020320e-03 6.197735859540e-03
39                   -6.459562888528e-01 9.839746647421e-01 9.501230380290e-01 -6.427914238868e-01 9.740353257883e-01 9.440220085343e-01 -3.164864966022e-03 9.939338953839e-03 6.101029494667e-03
40                   -6.441996928280e-01 1.992119195612e+00 7.828778792292e-01 -6.408725674919e-01 1.982851031747e+00 7.766411916307e-01 -3.327125336068e-03 9.268163864750e-03 6.236687598418e-03
41                   -6.478374212491e-01 2.383832762037e+00 7.487839099056e-01 -6.443032886698e-01 2.377296820663e+00 7.425329398152e-01 -3.534132579357e-03 6.535941374268e-03 6.250970090433e-03
42                   -6.309661846915e-01 1.882197187414e+00 7.700438700462e-01 -6.274794517928e-01 1.877114891946e+00 7.639488015727e-01 -3.486732898674e-03 5.082295468489e-03 6.095068473522e-03
43                   -6.054730567208e-01 1.108977091766e+00 7.686532247122e-01 -6.022987777875e-01 1.102858774708e+00 7.628787850625e-01 -3.174278933322e-03 6.118317058755e-03 5.774439649643e-03
44                   -5.953636192597e-01 7.315445473138e-01 7.469844620411e-01 -5.924692272522e-01 7.236455956941e-01 7.416272066481e-01 -2.894392007508e-03 7.898951619727e-03 5.357255392971e-03
45                   -6.065683690697e-01 8.812099269729e-01 7.560795535006e-01 -6.037093175419e-01 8.730701651687e-01 7.512080857632e-01 -2.859051527820e-03 8.139761804235e-03 4.871467737379e-03
46                   -6.163105779304e-01 1.174575753166e+00 7.829348073361e-01 -6.133240464072e-01 1.167352400136e+00 7.783027033259e-01 -2.986531523247e-03 7.223353029843e-03 4.632104010164e-03
47                   -6.035261655785e-01 1.310924546184e+00 8.004474317444e-01 -6.004720411953e-01 1.304507120349e+00 7.960125192263e-01 -3.054124383187e-03 6.417425834402e-03 4.434912518101e-03
48                   -5.721859136584e-01 1.256530155363e+00 7.944139673222e-01 -5.691916311768e-01 1.249999194425e+00 7.902508385037e-01 -2.994282481603e-03 6.530960938394e-03 4.163128818498e-03
49                   -5.412835889469e-01 1.112268278312e+00 7.716816378437e-01 -5.384230593069e-01 1.104907671127e+00 7.677650672164e-01 -2.860529640036e-03 7.360607185508e-03 3.916570627314e-03
50                   -5.272766126474e-01 9.670168412489e-01 7.517980535307e-01 -5.245017108005e-01 9.590227837475e-01 7.480345708585e-01 -2.774901846956e-03 7.994057501301e-03 3.763482672167e-03
51                   -5.321192993223e-01 8.688356515289e-01 7.460811797773e-01 -5.293233346894e-01 8.607966668956e-01 7.423742924222e-01 -2.795964632840e-03 8.038984633218e-03 3.706887355061e-03
52                   -5.430817192411e-01 8.378124434337e-01 7.516534019613e-01 -5.401952361703e-01 8.299140508106e-01 7.479232544912e-01 -2.886483070817e-03 7.898392623064e-03 3.730147470156e-03
53                   -5.447100959175e-01 8.655454957807e-01 7.560424935030e-01 -5.417555903370e-01 8.575350390362e-01 7.522826955327e-01 -2.954505580495e-03 8.010456744413e-03 3.759797970306e-03
54                   -5.326069136984e-01 9.116822366760e-01 7.533058366018e-01 -5.296602652596e-01 9.033093724533e-01 7.495054120299e-01 -2.946648438852e-03 8.372864222659e-03 3.800424571913e-03
55                   -5.151568197276e-01 9.361628975720e-01 7.498480354122e-01 -5.122904712709e-01 9.274370789153e-01 7.460343245037e-01 -2.866348456770e-03 8.725818656702e-03 3.813710908500e-03
56                   -5.022184437640e-01 9.224896025859e-01 7.526134661799e-01 -4.994352656389e-01 9.135983536425e-01 7.487968430163e-01 -2.783178125080e-03 8.891248943457e-03 3.816623163551e-03
57                   -4.961063763173e-01 8.867525256609e-01 7.605538009707e-01 -4.933546136727e-01 8.778258688278e-01 7.566962845718e-01 -2.751762644595e-03 8.926656833055e-03 3.857516398853e-03
58                   -4.912947085257e-01 8.621991572937e-01 7.655000473350e-01 -4.885454369066e-01 8.531904093156e-01 7.615741214712e-01 -2.749271619156e-03 9.008747978049e-03 3.925925863842e-03
59                   -4.829965430097e-01 8.615624242803e-01 7.631257112347e-01 -4.802826403058e-01 8.523449848216e-01 7.591533676135e-01 -2.713902703881e-03 9.217439458670e-03 3.972343621130e-03
60                   -4.688604576735e-01 8.728299372744e-01 7.513355401412e-01 -4.662342990034e-01 8.633207005609e-01 7.473627898085e-01 -2.626158670136e-03 9.509236713457e-03 3.972750332698e-03
61                   -4.499609839978e-01 8.737484188610e-01 7.305944655818e-01 -4.474451774888e-01 8.639588297392e-01 7.266534680193e-01 -2.515806509046e-03 9.789589121834e-03 3.940997562459e-03
62                   -4.306677347895e-01 8.568430491824e-01 7.044695115192e-01 -4.282414969802e-01 8.468428615632e-01 7.005680554233e-01 -2.426237809251e-03 1.000018761916e-02 3.901456095961e-03
63                   -4.120360306059e-01 8.334300357197e-01 6.743081380513e-01 -4.096674530809e-01 8.232455785025e-01 6.704311337652e-01 -2.368577525021e-03 1.018445721728e-02 3.877004286098e-03
64                   -3.928276027846e-01 8.220077272976e-01 6.402445024765e-01 -3.905048102573e-01 8.115885727630e-01 6.363710915838e-01 -2.322792527244e-03 1.041915453459e-02 3.873410892707e-03
65                   -3.725445523453e-01 8.308979211588e-01 6.052107416696e-01 -3.702753263937e-01 8.201731263301e-01 6.013377499729e-01 -2.269225951561e-03 1.072479482871e-02 3.872991696731e-03
66                   -3.517862561958e-01 8.503860498384e-01 5.719038373294e-01 -3.495832135155e-01 8.393237213241e-01 5.680510448742e-01 -2.203042680260e-03 1.106232851439e-02 3.852792455201e-03
67                   -3.320612992297e-01 8.670672984145e-01 5.422594567016e-01 -3.299294652218e-01 8.556809882151e-01 5.384518670372e-01 -2.131834007933e-03 1.138631019937e-02 3.807589664394e-03
68                   -3.131708150314e-01 8.713036107257e-01 5.141991069309e-01 -3.111036956828e-01 8.596192156688e-01 5.104502911474e-01 -2.067119348661e-03 1.168439505691e-02 3.748815783479e-03
69                   -2.949526505298e-01 8.645018665114e-01 4.857415613173e-01 -2.929399351157e-01 8.525294629767e-01 4.820534230230e-01 -2.012715414035e-03 1.197240353464e-02 3.688138294285e-03
70                   -2.774499050485e-01 8.524247754857e-01 4.566489085609e-01 -2.754856084814e-01 8.401546114339e-01 4.530194617870e-01 -1.964296567146e-03 1.227016405188e-02 3.629446773917e-03
71                   -2.613005609203e-01 8.378390077404e-01 4.287255560959e-01 -2.593849378342e-01 8.252599663714e-01 4.251547295044e-01 -1.915623086053e-03 1.257904136904e-02 3.570826591480e-03
72                   -2.472775944608e-01 8.195857540015e-01 4.040829758167e-01 -2.454126505533e-01 8.067065302671e-01 4.005720573489e-01 -1.864943907531e-03 1.287922373446e-02 3.510918467789e-03
73                   -2.354144945567e-01 7.969395984599e-01 3.832475764804e-01 -2.335988800332e-01 7.837949755204e-01 3.797948321227e-01 -1.815614523424e-03 1.314462293956e-02 3.452744357667e-03
74                   -2.248740071838e-01 7.697756583475e-01 3.650549613874e-01 -2.231025435104e-01 7.564150174618e-01 3.616565222562e-01 -1.771463673394e-03 1.336064088571e-02 3.398439131245e-03
75                   -2.145625692281e-01 7.368933802263e-01 3.476774908240e-01 -2.128294948519e-01 7.233650438594e-01 3.443328967140e-01 -1.733074376163e-03 1.352833636697e-02 3.344594109922e-03
76                   -2.038377367613e-01 6.946177365855e-01 3.296463512213e-01 -2.021403359474e-01 6.809643521097e-01 3.263610071149e-01 -1.697400813870e-03 1.365338447579e-02 3.285344106418e-03
77                   -1.927878258037e-01 6.398230777802e-01 3.103146452821e-01 -1.911271714548e-01 6.260867044263e-01 3.070980458052e-01 -1.660654348957e-03 1.373637335390e-02 3.216599476864e-03
78                   -1.822435970104e-01 5.738542309476e-01 2.906316415665e-01 -1.806220313679e-01 5.600811858400e-01 2.874934226745e-01 -1.621565642477e-03 1.377304510759e-02 3.138218891990e-03
79                   -1.727450931517e-01 5.022618467391e-01 2.710570677623e-01 -1.711635759872e-01 4.885013297928e-01 2.680005282009e-01 -1.581517164488e-03 1.376051694638e-02 3.056539561416e-03
80                   -1.642462296802e-01 4.334804327227e-01 2.512846403126e-01 -1.627034712436e-01 4.197797201969e-01 2.483077632045e-01 -1.542758436639e-03 1.370071252575e-02 2.976877108094e-03
81                   -1.565306111178e-01 3.764646963046e-01 2.313052664245e-01 -1.550246283498e-01 3.628641458296e-01 2.284025628177e-01 -1.505982767962e-03 1.360055047497e-02 2.902703606724e-03
82                   -1.496401291061e-01 3.371938640261e-01 2.125097948927e-01 -1.481693650380e-01 3.237267241962e-01 2.096742547054e-01 -1.470764068092e-03 1.346713982996e-02 2.835540187323e-03
83                   -1.440173606672e-01 3.172047100743e-01 1.974248210882e-01 -1.425808089733e-01 3.038952042127e-01 1.946459962428e-01 -1.436551693928e-03 1.330950586156e-02 2.778824845372e-03
84                   -1.401173257334e-01 3.137799445683e-01 1.880468562654e-01 -1.387130224856e-01 3.006416537283e-01 1.853101526931e-01 -1.404303247769e-03 1.313829083999e-02 2.736703572299e-03
85                   -1.380025537842e-01 3.223257939330e-01 1.843454663629e-01 -1.366270380780e-01 3.093591310585e-01 1.816364990672e-01 -1.375515706204e-03 1.296666287456e-02 2.708967295714e-03
86                   -1.369441596987e-01 3.386103684536e-01 1.835626455663e-01 -1.355929839456e-01 3.258027574908e-01 1.808700698636e-01 -1.351175753113e-03 1.280761096271e-02 2.692575702687e-03
87                   -1.360361228354e-01 3.592998180233e-01 1.824055342844e-01 -1.347054777845e-01 3.466304376324e-01 1.797210127252e-01 -1.330645050966e-03 1.266938039088e-02 2.684521559242e-03
88                   -1.348863897874e-01 3.826284564142e-01 1.795040871957e-01 -1.335740039241e-01 3.700737187247e-01 1.768186835166e-01 -1.312385863286e-03 1.255473768949e-02 2.685403679140e-03
89                   -1.336309299049e-01 4.074021827464e-01 1.754234095149e-01 -1.323357476416e-01 3.949404499425e-01 1.727238017305e-01 -1.295182263277e-03 1.246173280383e-02 2.699607784353e-03
90                   -1.325536935370e-01 4.321507617261e-01 1.712721401392e-01 -1.312747401817e-01 4.197633028076e-01 1.685412592302e-01 -1.278953355361e-03 1.238745891853e-02 2.730880909045e-03
91                   -1.318182663982e-01 4.550302218263e-01 1.677868645600e-01 -1.305532659806e-01 4.426992787653e-01 1.650077565466e-01 -1.265000417617e-03 1.233094306097e-02 2.779108013424e-03
92                   -1.314227673024e-01 4.749640716883e-01 1.650988737047e-01 -1.301686066339e-01 4.626693666877e-01 1.622599201461e-01 -1.254160668506e-03 1.229470500065e-02 2.838953558607e-03
93                   -1.312979781059e-01 4.914583934318e-01 1.630866254842e-01 -1.300517665812e-01 4.791789979085e-01 1.601827674557e-01 -1.246211524681e-03 1.227939552334e-02 2.903858028480e-03
94                   -1.314437283758e-01 5.047866780592e-01 1.618487470717e-01 -1.302031453088e-01 4.925029997207e-01 1.588813436307e-01 -1.240583067037e-03 1.228367833848e-02 2.967403441032e-03
95                   -1.319001419702e-01 5.156279178772e-01 1.616490345618e-01 -1.306637381923e-01 5.033241927155e-01 1.586232040571e-01 -1.236403777840e-03 1.230372516174e-02 3.025830504700e-03
96                   -1.326858617266e-01 5.245833760221e-01 1.626730064034e-01 -1.314523741532e-01 5.122484199768e-01 1.595935444224e-01 -1.233487573405e-03 1.233495604527e-02 3.079461981037e-03
97                   -1.337546281120e-01 5.318182598889e-01 1.648287472091e-01 -1.325222705967e-01 5.194446655411e-01 1.616981067333e-01 -1.232357515254e-03 1.237359434780e-02 3.130640475779e-03
98                   -1.350027152971e-01 5.369157244462e-01 1.678279770179e-01 -1.337696297172e-01 5.244974625621e-01 1.646477833397e-01 -1.233085579876e-03 1.241826188410e-02 3.180193678224e-03
99                   -1.363418228411e-01 5.393907295383e-01 1.714841909911e-01 -1.351062046909e-01 5.269231117973e-01 1.682546726411e-01 -1.235618150231e-03 1.246761774102e-02 3.229518350027e-03
100                  -1.377000853649e-01 5.393252613415e-01 1.756873128170e-01 -1.364598319377e-01 5.268066207891e-01 1.724073423086e-01 -1.240253427161e-03 1.251864055239e-02 3.279970508390e-03
101                  -1.390133656672e-01 5.369974440297e-01 1.802963326682e-01 -1.377671184631e-01 5.244293140889e-01 1.769635496956e-01 -1.246247204184e-03 1.256812994080e-02 3.332782972518e-03
102                  -1.402255285148e-01 5.329011021675e-01 1.850643479917e-01 -1.389720612381e-01 5.202885300457e-01 1.816761014856e-01 -1.253467276712e-03 1.261257212183e-02 3.388246506062e-03
103                  -1.412744416092e-01 5.272941665645e-01 1.896391172130e-01 -1.400129106298e-01 5.146457773733e-01 1.861932467491e-01 -1.261530979378e-03 1.264838919124e-02 3.445870463901e-03
104                  -1.421152354641e-01 5.202230671136e-01 1.936924880806e-01 -1.408449821972e-01 5.075499699339e-01 1.901879908277e-01 -1.270253266872e-03 1.267309717969e-02 3.504497252914e-03
105                  -1.427353293670e-01 5.120416279601e-01 1.969946539358e-01 -1.414560857733e-01 4.993563902308e-01 1.934314494831e-01 -1.279243593713e-03 1.268523772934e-02 3.563204452637e-03
106                  -1.431723084800e-01 5.034831889700e-01 1.995147134629e-01 -1.418840881695e-01 4.907985758314e-01 1.958934824236e-01 -1.288220310521e-03 1.268461313862e-02 3.621231039304e-03
107                  -1.434842149295e-01 4.952995447594e-01 2.013350848754e-01 -1.421872892882e-01 4.826297695073e-01 1.976569716296e-01 -1.296925641306e-03 1.266977525210e-02 3.678113245833e-03
108                  -1.437445598716e-01 4.880413339862e-01 2.026533801827e-01 -1.424392078395e-01 4.754001642784e-01 1.989200784176e-01 -1.305352032070e-03 1.264116970772e-02 3.733301765081e-03
109                  -1.440408951704e-01 4.821201391999e-01 2.037707829993e-01 -1.427271578907e-01 4.695208265964e-01 1.999840322826e-01 -1.313737279674e-03 1.259931260348e-02 3.786750716675e-03
110                  -1.444260510593e-01 4.780159485367e-01 2.049474591585e-01 -1.431042772433e-01 4.654697061878e-01 2.011092944885e-01 -1.321773816043e-03 1.254624234897e-02 3.838164669995e-03
111                  -1.449217241302e-01 4.762880844880e-01 2.063463241375e-01 -1.435922030282e-01 4.638026963608e-01 2.024588928944e-01 -1.329521102023e-03 1.248538812718e-02 3.887431243136e-03
112                  -1.455210575884e-01 4.775336357845e-01 2.079987651254e-01 -1.441839212539e-01 4.651125424739e-01 2.040648819174e-01 -1.337136334510e-03 1.242109331060e-02 3.933883207923e-03
113                  -1.462207976607e-01 4.821481744798e-01 2.098699947514e-01 -1.448756760525e-01 4.697916390720e-01 2.058915423720e-01 -1.345121608173e-03 1.235653540781e-02 3.978452379328e-03
114                  -1.469888675812e-01 4.901209595127e-01 2.118543972692e-01 -1.456356583152e-01 4.778249510346e-01 2.078332895429e-01 -1.353209265998e-03 1.229600847809e-02 4.021107726262e-03
115                  -1.477639753161e-01 5.009591451005e-01 2.138094913034e-01 -1.464025071639e-01 4.887168349493e-01 2.097471907014e-01 -1.361468152242e-03 1.224231015116e-02 4.062300601974e-03
116                  -1.484577339321e-01 5.137099768890e-01 2.155576137833e-01 -1.470880222973e-01 5.015115823215e-01 2.114563960820e-01 -1.369711634790e-03 1.219839456749e-02 4.101217701300e-03
117                  -1.490117810941e-01 5.273981783368e-01 2.169977285263e-01 -1.476339873551e-01 5.152314845937e-01 2.128591891862e-01 -1.377793738985e-03 1.216669374314e-02 4.138539340044e-03
118                  -1.494045632405e-01 5.411757217245e-01 2.181674380413e-01 -1.480186314794e-01 5.290271235949e-01 2.139943467282e-01 -1.385931761168e-03 1.214859812953e-02 4.173091313077e-03
119                  -1.496405306006e-01 5.543316177338e-01 2.190818047777e-01 -1.482468143039e-01 5.421872415777e-01 2.148773298008e-01 -1.393716296716e-03 1.214437615612e-02 4.204474976898e-03
120                  -1.497233760793e-01 5.662282503684e-01 2.196598094367e-01 -1.483223082350e-01 5.540738999027e-01 2.154282159906e-01 -1.401067844270e-03 1.215435046578e-02 4.231593446081e-03
121                  -1.496502005193e-01 5.763054814759e-01 2.198006109423e-01 -1.482424909224e-01 5.641277504007e-01 2.155471499852e-01 -1.407709596937e-03 1.217773107525e-02 4.253460957087e-03
122                  -1.494132594295e-01 5.841445898267e-01 2.195050141967e-01 -1.480000792167e-01 5.719328330870e-01 2.152357437666e-01 -1.413180212850e-03 1.221175673968e-02 4.269270430078e-03
123                  -1.490389999348e-01 5.894707762686e-01 2.188221350022e-01 -1.476217905356e-01 5.772174087011e-01 2.145428240467e-01 -1.417209399211e-03 1.225336756749e-02 4.279310955486e-03
124                  -1.485874524438e-01 5.921433610828e-01 2.178422638977e-01 -1.471672089416e-01 5.798444837529e-01 2.135580215633e-01 -1.420243502218e-03 1.229887732994e-02 4.284242334373e-03
125                  -1.481232199930e-01 5.921535493217e-01 2.166748258039e-01 -1.467008827958e-01 5.798083239213e-01 2.123895936713e-01 -1.422337197183e-03 1.234522540033e-02 4.285232132565e-03
126                  -1.477050083292e-01 5.896449496292e-01 2.154576641840e-01 -1.462812557673e-01 5.772550854584e-01 2.111742035486e-01 -1.423752561935e-03 1.238986417080e-02 4.283460635408e-03
127                  -1.473711799192e-01 5.848877501153e-01 2.143480400566e-01 -1.459471057467e-01 5.724576907876e-01 2.100688186062e-01 -1.424074172534e-03 1.243005932772e-02 4.279221450443e-03
128                  -1.471516095836e-01 5.782953387564e-01 2.134804353984e-01 -1.457278353548e-01 5.658309857956e-01 2.092071917191e-01 -1.423774228727e-03 1.246435296078e-02 4.273243679388e-03
129                  -1.470667878777e-01 5.703772905630e-01 2.128948315735e-01 -1.456436302473e-01 5.578853398026e-01 2.086280143657e-01 -1.423157630467e-03 1.249195076043e-02 4.266817207761e-03
130                  -1.471184352581e-01 5.616650244607e-01 2.125403429942e-01 -1.456957730338e-01 5.491521622846e-01 2.082801883460e-01 -1.422662224340e-03 1.251286217610e-02 4.260154648153e-03
131                  -1.472846055402e-01 5.526847486167e-01 2.123752143305e-01 -1.458623253109e-01 5.401578245331e-01 2.081214050920e-01 -1.422280229330e-03 1.252692408359e-02 4.253809238579e-03
132                  -1.475542788024e-01 5.439507156695e-01 2.124118038412e-01 -1.461320777833e-01 5.314161075343e-01 2.081640780779e-01 -1.422201019104e-03 1.253460813516e-02 4.247725763275e-03
133                  -1.478856373151e-01 5.359657592271e-01 2.126614219841e-01 -1.464633956522e-01 5.234313484639e-01 2.084197141212e-01 -1.422241662979e-03 1.253441076326e-02 4.241707862963e-03
134                  -1.482504799521e-01 5.291083210103e-01 2.129527763013e-01 -1.468282491284e-01 5.165819816269e-01 2.087166773359e-01 -1.422230823733e-03 1.252633938337e-02 4.236098965424e-03
135                  -1.485825264455e-01 5.236991248020e-01 2.131224848373e-01 -1.471601971022e-01 5.111881377811e-01 2.088908062724e-01 -1.422329343261e-03 1.251098702089e-02 4.231678564900e-03
136                  -1.488708176149e-01 5.199299929318e-01 2.131028912557e-01 -1.474479929897e-01 5.074399221955e-01 2.088743781302e-01 -1.422824625180e-03 1.249007073624e-02 4.228513125512e-03
137                  -1.491290013392e-01 5.179221509761e-01 2.130476786407e-01 -1.477049643602e-01 5.054572133464e-01 2.088211654257e-01 -1.424036978938e-03 1.246493762972e-02 4.226513215028e-03
138                  -1.493714402065e-01 5.177649064102e-01 2.132148318124e-01 -1.479456726862e-01 5.053266727371e-01 2.089891510748e-01 -1.425767520320e-03 1.243823367312e-02 4.225680737551e-03
139                  -1.495666691115e-01 5.194443035428e-01 2.136501976722e-01 -1.481389870618e-01 5.070322459166e-01 2.094247952301e-01 -1.427682049607e-03 1.241205762624e-02 4.225402442111e-03
140                  -1.497326467499e-01 5.227725674523e-01 2.141380604820e-01 -1.483029401699e-01 5.103844493072e-01 2.099126222913e-01 -1.429706579999e-03 1.238811814513e-02 4.225438190661e-03
141                  -1.498743538648e-01 5.275325553022e-01 2.145903481904e-01 -1.484423003342e-01 5.151632279511e-01 2.103643995532e-01 -1.432053530687e-03 1.236932735108e-02 4.225948637182e-03
142                  -1.500091435074e-01 5.334885356702e-01 2.150375662592e-01 -1.485740114200e-01 5.211314245243e-01 2.108105370577e-01 -1.435132087424e-03 1.235711114588e-02 4.227029201543e-03
143                  -1.501328479390e-01 5.403705670801e-01 2.155553227394e-01 -1.486942158024e-01 5.280197910447e-01 2.113264299548e-01 -1.438632136575e-03 1.235077603535e-02 4.228892784511e-03
144                  -1.502251911968e-01 5.478782925625e-01 2.162004900491e-01 -1.487826667109e-01 5.355267909092e-01 2.119687571896e-01 -1.442524485887e-03 1.235150165324e-02 4.231732859470e-03
145                  -1.502794402142e-01 5.556642029407e-01 2.169613294560e-01 -1.488328944196e-01 5.433047856629e-01 2.127257001498e-01 -1.446545794620e-03 1.235941727779e-02 4.235629306145e-03
146                  -1.503103721889e-01 5.633188328334e-01 2.177517203599e-01 -1.488597667775e-01 5.509447837913e-01 2.135107802463e-01 -1.450605411452e-03 1.237404904209e-02 4.240940113692e-03
147                  -1.503437864452e-01 5.703857732205e-01 2.184948423520e-01 -1.488893293923e-01 5.579910241103e-01 2.142468467749e-01 -1.454457052822e-03 1.239474911019e-02 4.247995577124e-03
148                  -1.503895711408e-01 5.764626421426e-01 2.191558413169e-01 -1.489313843934e-01 5.640417926741e-01 2.148991386984e-01 -1.458186747398e-03 1.242084946850e-02 4.256702618482e-03
149                  -1.504636135111e-01 5.812141737118e-01 2.197681047929e-01 -1.490017480268e-01 5.687630826254e-01 2.155010691412e-01 -1.461865484259e-03 1.245109108646e-02 4.267035651732e-03
150                  -1.506180224736e-01 5.844653628062e-01 2.204833723703e-01 -1.491523415952e-01 5.719803138671e-01 2.162043068502e-01 -1.465680878439e-03 1.248504893909e-02 4.279065520161e-03
151                  -1.508728540652e-01 5.861458539438e-01 2.214332320531e-01 -1.494030295237e-01 5.736245175240e-01 2.171401835381e-01 -1.469824541452e-03 1.252133641985e-02 4.293048514943e-03
152                  -1.512243772000e-01 5.862328855199e-01 2.226577980931e-01 -1.497500097592e-01 5.736737475016e-01 2.183490755050e-01 -1.474367440825e-03 1.255913801828e-02 4.308722588111e-03